 DBCSR| CPU Multiplication driver                                            SMM
 DBCSR| Multrec recursion limit                                              512
 DBCSR| Multiplication stack size                                          30000
 DBCSR| Maximum elements for images                                    UNLIMITED
 DBCSR| Multiplicative factor virtual images                                   1
 DBCSR| Use multiplication densification                                       F
 DBCSR| Multiplication size stacks                                             3
 DBCSR| Use memory pool for CPU allocation                                     F
 DBCSR| Number of 3D layers                                               SINGLE
 DBCSR| Use MPI memory allocation                                              F
 DBCSR| Use RMA algorithm                                                      F
 DBCSR| Use Communication thread                                               T
 DBCSR| Communication thread load                                             87
 DBCSR| MPI: My node id                                                        0
 DBCSR| MPI: Number of nodes                                                 192
 DBCSR| OMP: Current number of threads                                         1
 DBCSR| OMP: Max number of threads                                             1
 DBCSR| ACC: Number of devices/node                                            1
 DBCSR| ACC: Number of priority stack-buffers                                 40
 DBCSR| ACC: Number of posterior stack-buffers                                80
 DBCSR| ACC: Number of priority streams                                        4
 DBCSR| ACC: Number of posterior streams                                       4
 DBCSR| ACC: Avoid driver after busy                                           F
 DBCSR| ACC: Process inhomogeneous stacks                                      T
 DBCSR| ACC: Min. flop for processing                                          0
 DBCSR| ACC: Min. flop for sorting                                          4000
 DBCSR| ACC: Number of binning bins                                         4096
 DBCSR| ACC: Size of binning bins                                             16
 DBCSR| Split modifier for TAS multiplication algorithm                  1.0E+00


  **** **** ******  **  PROGRAM STARTED AT               2021-09-16 16:06:31.085
 ***** ** ***  *** **   PROGRAM STARTED ON                              nid02189
 **    ****   ******    PROGRAM STARTED BY                              dpassero
 ***** **    ** ** **   PROGRAM PROCESS ID                                 13443
  **** **  *******  **  PROGRAM STARTED IN   /scratch/snx3000/dpassero/hybrid_Au

 CP2K| version string:                                          CP2K version 8.1
 CP2K| source code revision number:                                  git:0b61f2f
 CP2K| cp2kflags: omp libint fftw3 libxc elpa parallel mpi3 scalapack acc smm_dn
 CP2K|            n smm dbcsr_acc max_contr=4
 CP2K| is freely available from                            https://www.cp2k.org/
 CP2K| Program compiled at                          Wed Mar 17 13:15:24 CET 2021
 CP2K| Program compiled on                                              daint101
 CP2K| Program compiled for                                CP2K-8.1-CrayGNU-cuda
 CP2K| Data directory path    /apps/daint/UES/jenkins/7.0.UP02-20.11/gpu/easybui
 CP2K| Input file name                                             Au_CS_PBE.inp

 GLOBAL| Force Environment number                                              1
 GLOBAL| Basis set file name                                        BASIS_MOLOPT
 GLOBAL| Potential file name                                      GTH_POTENTIALS
 GLOBAL| MM Potential file name                                     MM_POTENTIAL
 GLOBAL| Coordinate file name           /scratch/snx3000/dpassero/hybrid_Au/CS_t
 GLOBAL| Method name                                                        CP2K
 GLOBAL| Project name                                                  Au_CS_pbe
 GLOBAL| Preferred FFT library                                             FFTW3
 GLOBAL| Preferred diagonalization lib.                                     ELPA
 GLOBAL| Run type                                                         ENERGY
 GLOBAL| All-to-all communication in single precision                          F
 GLOBAL| FFTs using library dependent lengths                                  F
 GLOBAL| Global print level                                               MEDIUM
 GLOBAL| MPI I/O enabled                                                       T
 GLOBAL| Total number of message passing processes                           192
 GLOBAL| Number of threads for this process                                    1
 GLOBAL| This output is from process                                           0
 GLOBAL| CPU model name                Intel(R) Xeon(R) CPU E5-2690 v3 @ 2.60GHz
 GLOBAL| CPUID                                                              1002

 MEMORY| system memory details [Kb]
 MEMORY|                        rank 0           min           max       average
 MEMORY| MemTotal             65842332      65842332      65842332      65842332
 MEMORY| MemFree              57669188      57669188      57899276      57850959
 MEMORY| Buffers                  8796          6060          8796          6461
 MEMORY| Cached                2831288       2643836       2831288       2676087
 MEMORY| Slab                   235248        224964        235248        229568
 MEMORY| SReclaimable            51528         45968         51528         46932
 MEMORY| MemLikelyFree        60560800      60560800      60603704      60580441


 *** Fundamental physical constants (SI units) ***

 *** Literature: B. J. Mohr and B. N. Taylor,
 ***             CODATA recommended values of the fundamental physical
 ***             constants: 2006, Web Version 5.1
 ***             http://physics.nist.gov/constants

 Speed of light in vacuum [m/s]                             2.99792458000000E+08
 Magnetic constant or permeability of vacuum [N/A**2]       1.25663706143592E-06
 Electric constant or permittivity of vacuum [F/m]          8.85418781762039E-12
 Planck constant (h) [J*s]                                  6.62606896000000E-34
 Planck constant (h-bar) [J*s]                              1.05457162825177E-34
 Elementary charge [C]                                      1.60217648700000E-19
 Electron mass [kg]                                         9.10938215000000E-31
 Electron g factor [ ]                                     -2.00231930436220E+00
 Proton mass [kg]                                           1.67262163700000E-27
 Fine-structure constant                                    7.29735253760000E-03
 Rydberg constant [1/m]                                     1.09737315685270E+07
 Avogadro constant [1/mol]                                  6.02214179000000E+23
 Boltzmann constant [J/K]                                   1.38065040000000E-23
 Atomic mass unit [kg]                                      1.66053878200000E-27
 Bohr radius [m]                                            5.29177208590000E-11

 *** Conversion factors ***

 [u] -> [a.u.]                                              1.82288848426455E+03
 [Angstrom] -> [Bohr] = [a.u.]                              1.88972613288564E+00
 [a.u.] = [Bohr] -> [Angstrom]                              5.29177208590000E-01
 [a.u.] -> [s]                                              2.41888432650478E-17
 [a.u.] -> [fs]                                             2.41888432650478E-02
 [a.u.] -> [J]                                              4.35974393937059E-18
 [a.u.] -> [N]                                              8.23872205491840E-08
 [a.u.] -> [K]                                              3.15774647902944E+05
 [a.u.] -> [kJ/mol]                                         2.62549961709828E+03
 [a.u.] -> [kcal/mol]                                       6.27509468713739E+02
 [a.u.] -> [Pa]                                             2.94210107994716E+13
 [a.u.] -> [bar]                                            2.94210107994716E+08
 [a.u.] -> [atm]                                            2.90362800883016E+08
 [a.u.] -> [eV]                                             2.72113838565563E+01
 [a.u.] -> [Hz]                                             6.57968392072181E+15
 [a.u.] -> [1/cm] (wave numbers)                            2.19474631370540E+05
 [a.u./Bohr**2] -> [1/cm]                                   5.14048714338585E+03
 

 CELL_TOP| Volume [angstrom^3]:                                     34363.847341
 CELL_TOP| Vector a [angstrom    61.908     0.000     0.000   |a| =    61.907976
 CELL_TOP| Vector b [angstrom     0.000    30.637     0.000   |b| =    30.636503
 CELL_TOP| Vector c [angstrom     0.000     0.000    18.118   |c| =    18.118239
 CELL_TOP| Angle (b,c), alpha [degree]:                                90.000000
 CELL_TOP| Angle (a,c), beta  [degree]:                                90.000000
 CELL_TOP| Angle (a,b), gamma [degree]:                                90.000000
 CELL_TOP| Requested initial symmetry:                              ORTHORHOMBIC
 CELL_TOP| Numerically orthorhombic:                                         YES

 CELL| Volume [angstrom^3]:                                         34363.847341
 CELL| Vector a [angstrom]:      61.908     0.000     0.000   |a| =    61.907976
 CELL| Vector b [angstrom]:       0.000    30.637     0.000   |b| =    30.636503
 CELL| Vector c [angstrom]:       0.000     0.000    18.118   |c| =    18.118239
 CELL| Angle (b,c), alpha [degree]:                                    90.000000
 CELL| Angle (a,c), beta  [degree]:                                    90.000000
 CELL| Angle (a,b), gamma [degree]:                                    90.000000
 CELL| Requested initial symmetry:                                  ORTHORHOMBIC
 CELL| Numerically orthorhombic:                                             YES

 CELL_REF| Volume [angstrom^3]:                                     34363.847341
 CELL_REF| Vector a [angstrom    61.908     0.000     0.000   |a| =    61.907976
 CELL_REF| Vector b [angstrom     0.000    30.637     0.000   |b| =    30.636503
 CELL_REF| Vector c [angstrom     0.000     0.000    18.118   |c| =    18.118239
 CELL_REF| Angle (b,c), alpha [degree]:                                90.000000
 CELL_REF| Angle (a,c), beta  [degree]:                                90.000000
 CELL_REF| Angle (a,b), gamma [degree]:                                90.000000
 CELL_REF| Requested initial symmetry:                              ORTHORHOMBIC
 CELL_REF| Numerically orthorhombic:                                         YES

 *******************************************************************************
 *******************************************************************************
 **                                                                           **
 **     #####                         ##              ##                      **
 **    ##   ##            ##          ##              ##                      **
 **   ##     ##                       ##            ######                    **
 **   ##     ##  ##   ##  ##   #####  ##  ##   ####   ##    #####    #####    **
 **   ##     ##  ##   ##  ##  ##      ## ##   ##      ##   ##   ##  ##   ##   **
 **   ##  ## ##  ##   ##  ##  ##      ####     ###    ##   ######   ######    **
 **    ##  ###   ##   ##  ##  ##      ## ##      ##   ##   ##       ##        **
 **     #######   #####   ##   #####  ##  ##  ####    ##    #####   ##        **
 **           ##                                                    ##        **
 **                                                                           **
 **                                                ... make the atoms dance   **
 **                                                                           **
 **            Copyright (C) by CP2K developers group (2000 - 2020)           **
 **                      J. Chem. Phys. 152, 194103 (2020)                    **
 **                                                                           **
 *******************************************************************************

 DFT| Spin restricted Kohn-Sham (RKS) calculation                            RKS
 DFT| Multiplicity                                                             1
 DFT| Number of spin states                                                    1
 DFT| Charge                                                                   0
 DFT| Self-interaction correction (SIC)                                       NO
 DFT| Cutoffs: density                                              1.000000E-10
 DFT|          gradient                                             1.000000E-10
 DFT|          tau                                                  1.000000E-10
 DFT|          cutoff_smoothing_range                               0.000000E+00
 DFT| XC density smoothing                                                  NONE
 DFT| XC derivatives                                                          PW
 FUNCTIONAL| ROUTINE=NEW
 FUNCTIONAL| PBE:
 FUNCTIONAL| J.P.Perdew, K.Burke, M.Ernzerhof, Phys. Rev. Letter, vol. 77, n 18,
 FUNCTIONAL|  pp. 3865-3868, (1996){spin unpolarized}                           
 vdW POTENTIAL|                                             Non-local Functional
 vdW POTENTIAL| Implementation: G. Roman-Perez, J. Soler, PRL 103: 096102 (2009)
 vdW POTENTIAL|                       T. Thonhauser et al, PRB 76: 125112 (2007)
 vdW POTENTIAL|       R. Sabatini et al, J.Phys:Condens Matter 24: 424209 (2012)
 vdW POTENTIAL| Based on QE implementation by Brian Kolb, Timo Thonhauser (2009)
 vdW POTENTIAL| RVV10 Functional:    R. Sabatini et al, PRB 87: 041108(R) (2013)

 QS| Method:                                                                 GPW
 QS| Density plane wave grid type                        NON-SPHERICAL FULLSPACE
 QS| Number of grid levels:                                                    6
 QS| Density cutoff [a.u.]:                                                300.0
 QS| Multi grid cutoff [a.u.]: 1) grid level                               300.0
 QS|                           2) grid level                               100.0
 QS|                           3) grid level                                33.3
 QS|                           4) grid level                                11.1
 QS|                           5) grid level                                 3.7
 QS|                           6) grid level                                 1.2
 QS| Grid level progression factor:                                          3.0
 QS| Relative density cutoff [a.u.]:                                        25.0
 QS| Interaction thresholds: eps_pgf_orb:                                1.0E-05
 QS|                         eps_filter_matrix:                          0.0E+00
 QS|                         eps_core_charge:                            1.0E-12
 QS|                         eps_rho_gspace:                             1.0E-10
 QS|                         eps_rho_rspace:                             1.0E-10
 QS|                         eps_gvg_rspace:                             1.0E-05
 QS|                         eps_ppl:                                    1.0E-02
 QS|                         eps_ppnl:                                   1.0E-07


 ATOMIC KIND INFORMATION

  1. Atomic kind: H                                     Number of atoms:     298

     Orbital Basis Set                                          TZV2P-MOLOPT-GTH

       Number of orbital shell sets:                                           1
       Number of orbital shells:                                               5
       Number of primitive Cartesian functions:                                7
       Number of Cartesian basis functions:                                    9
       Number of spherical basis functions:                                    9
       Norm type:                                                              2

       Normalised Cartesian orbitals:

                        Set   Shell   Orbital            Exponent    Coefficient

                          1       1    2s               11.478000       0.129129
                                                         3.700759       0.177012
                                                         1.446884       0.141285
                                                         0.716815       0.245670
                                                         0.247919       0.094768
                                                         0.066918       0.004062
                                                         0.021708      -0.000053

                          1       2    3s               11.478000      -0.079256
                                                         3.700759      -0.152992
                                                         1.446884       0.015066
                                                         0.716815      -0.331234
                                                         0.247919       0.210690
                                                         0.066918       0.058630
                                                         0.021708      -0.003429

                          1       3    4s               11.478000      -0.246880
                                                         3.700759       0.023016
                                                         1.446884      -1.109374
                                                         0.716815       1.524652
                                                         0.247919      -0.227968
                                                         0.066918      -0.037343
                                                         0.021708       0.005696

                          1       4    3px              11.478000       0.325290
                                                         3.700759       0.187466
                                                         1.446884       0.443300
                                                         0.716815       0.267738
                                                         0.247919       0.088285
                                                         0.066918       0.019092
                                                         0.021708       0.000629
                          1       4    3py              11.478000       0.325290
                                                         3.700759       0.187466
                                                         1.446884       0.443300
                                                         0.716815       0.267738
                                                         0.247919       0.088285
                                                         0.066918       0.019092
                                                         0.021708       0.000629
                          1       4    3pz              11.478000       0.325290
                                                         3.700759       0.187466
                                                         1.446884       0.443300
                                                         0.716815       0.267738
                                                         0.247919       0.088285
                                                         0.066918       0.019092
                                                         0.021708       0.000629

                          1       5    4px              11.478000      -1.727188
                                                         3.700759      -0.598393
                                                         1.446884      -3.813128
                                                         0.716815       1.901151
                                                         0.247919      -0.262425
                                                         0.066918       0.006339
                                                         0.021708       0.007345
                          1       5    4py              11.478000      -1.727188
                                                         3.700759      -0.598393
                                                         1.446884      -3.813128
                                                         0.716815       1.901151
                                                         0.247919      -0.262425
                                                         0.066918       0.006339
                                                         0.021708       0.007345
                          1       5    4pz              11.478000      -1.727188
                                                         3.700759      -0.598393
                                                         1.446884      -3.813128
                                                         0.716815       1.901151
                                                         0.247919      -0.262425
                                                         0.066918       0.006339
                                                         0.021708       0.007345

     GTH Potential information for                                    GTH-PBE-q1

       Description:                       Goedecker-Teter-Hutter pseudopotential
                                           Goedecker et al., PRB 54, 1703 (1996)
                                          Hartwigsen et al., PRB 58, 3641 (1998)
                                                      Krack, TCA 114, 145 (2005)

       Gaussian exponent of the core charge distribution:              12.500000
       Electronic configuration (s p d ...):                                   1

       Parameters of the local part of the GTH pseudopotential:

                          rloc        C1          C2          C3          C4
                        0.200000   -4.178900    0.724463

  2. Atomic kind: C                                     Number of atoms:     144

     Orbital Basis Set                                          TZV2P-MOLOPT-GTH

       Number of orbital shell sets:                                           1
       Number of orbital shells:                                               8
       Number of primitive Cartesian functions:                                7
       Number of Cartesian basis functions:                                   24
       Number of spherical basis functions:                                   22
       Norm type:                                                              2

       Normalised Cartesian orbitals:

                        Set   Shell   Orbital            Exponent    Coefficient

                          1       1    2s                6.132625      -0.263661
                                                         2.625196      -0.231112
                                                         1.045457       0.042712
                                                         0.478316       0.306085
                                                         0.178617       0.065483
                                                         0.075145       0.000568
                                                         0.030287       0.000417

                          1       2    3s                6.132625       0.131937
                                                         2.625196       0.414269
                                                         1.045457      -0.593590
                                                         0.478316       0.644922
                                                         0.178617       0.069203
                                                         0.075145      -0.145101
                                                         0.030287       0.008247

                          1       3    4s                6.132625      -1.009391
                                                         2.625196      -0.608763
                                                         1.045457      -0.320627
                                                         0.478316       1.417678
                                                         0.178617      -0.917862
                                                         0.075145       0.286664
                                                         0.030287      -0.031483

                          1       4    3px               6.132625       0.562677
                                                         2.625196       0.633910
                                                         1.045457       0.379157
                                                         0.478316       0.235193
                                                         0.178617       0.052379
                                                         0.075145       0.003677
                                                         0.030287       0.000105
                          1       4    3py               6.132625       0.562677
                                                         2.625196       0.633910
                                                         1.045457       0.379157
                                                         0.478316       0.235193
                                                         0.178617       0.052379
                                                         0.075145       0.003677
                                                         0.030287       0.000105
                          1       4    3pz               6.132625       0.562677
                                                         2.625196       0.633910
                                                         1.045457       0.379157
                                                         0.478316       0.235193
                                                         0.178617       0.052379
                                                         0.075145       0.003677
                                                         0.030287       0.000105

                          1       5    4px               6.132625      -0.472364
                                                         2.625196      -0.221326
                                                         1.045457      -0.481781
                                                         0.478316       0.135466
                                                         0.178617       0.072281
                                                         0.075145       0.024920
                                                         0.030287       0.002706
                          1       5    4py               6.132625      -0.472364
                                                         2.625196      -0.221326
                                                         1.045457      -0.481781
                                                         0.478316       0.135466
                                                         0.178617       0.072281
                                                         0.075145       0.024920
                                                         0.030287       0.002706
                          1       5    4pz               6.132625      -0.472364
                                                         2.625196      -0.221326
                                                         1.045457      -0.481781
                                                         0.478316       0.135466
                                                         0.178617       0.072281
                                                         0.075145       0.024920
                                                         0.030287       0.002706

                          1       6    5px               6.132625      -0.321125
                                                         2.625196      -0.513960
                                                         1.045457      -0.659092
                                                         0.478316       1.236398
                                                         0.178617      -0.279443
                                                         0.075145       0.042466
                                                         0.030287      -0.008547
                          1       6    5py               6.132625      -0.321125
                                                         2.625196      -0.513960
                                                         1.045457      -0.659092
                                                         0.478316       1.236398
                                                         0.178617      -0.279443
                                                         0.075145       0.042466
                                                         0.030287      -0.008547
                          1       6    5pz               6.132625      -0.321125
                                                         2.625196      -0.513960
                                                         1.045457      -0.659092
                                                         0.478316       1.236398
                                                         0.178617      -0.279443
                                                         0.075145       0.042466
                                                         0.030287      -0.008547

                          1       7    4dx2              6.132625       0.874783
                                                         2.625196       0.375772
                                                         1.045457       0.653959
                                                         0.478316       0.191007
                                                         0.178617       0.018656
                                                         0.075145       0.003649
                                                         0.030287      -0.000011
                          1       7    4dxy              6.132625       1.515169
                                                         2.625196       0.650856
                                                         1.045457       1.132690
                                                         0.478316       0.330834
                                                         0.178617       0.032314
                                                         0.075145       0.006321
                                                         0.030287      -0.000019
                          1       7    4dxz              6.132625       1.515169
                                                         2.625196       0.650856
                                                         1.045457       1.132690
                                                         0.478316       0.330834
                                                         0.178617       0.032314
                                                         0.075145       0.006321
                                                         0.030287      -0.000019
                          1       7    4dy2              6.132625       0.874783
                                                         2.625196       0.375772
                                                         1.045457       0.653959
                                                         0.478316       0.191007
                                                         0.178617       0.018656
                                                         0.075145       0.003649
                                                         0.030287      -0.000011
                          1       7    4dyz              6.132625       1.515169
                                                         2.625196       0.650856
                                                         1.045457       1.132690
                                                         0.478316       0.330834
                                                         0.178617       0.032314
                                                         0.075145       0.006321
                                                         0.030287      -0.000019
                          1       7    4dz2              6.132625       0.874783
                                                         2.625196       0.375772
                                                         1.045457       0.653959
                                                         0.478316       0.191007
                                                         0.178617       0.018656
                                                         0.075145       0.003649
                                                         0.030287      -0.000011

                          1       8    5dx2              6.132625       3.037532
                                                         2.625196       0.636556
                                                         1.045457       2.577237
                                                         0.478316      -0.930692
                                                         0.178617       0.140536
                                                         0.075145      -0.022558
                                                         0.030287       0.000345
                          1       8    5dxy              6.132625       5.261160
                                                         2.625196       1.102547
                                                         1.045457       4.463906
                                                         0.478316      -1.612005
                                                         0.178617       0.243416
                                                         0.075145      -0.039072
                                                         0.030287       0.000598
                          1       8    5dxz              6.132625       5.261160
                                                         2.625196       1.102547
                                                         1.045457       4.463906
                                                         0.478316      -1.612005
                                                         0.178617       0.243416
                                                         0.075145      -0.039072
                                                         0.030287       0.000598
                          1       8    5dy2              6.132625       3.037532
                                                         2.625196       0.636556
                                                         1.045457       2.577237
                                                         0.478316      -0.930692
                                                         0.178617       0.140536
                                                         0.075145      -0.022558
                                                         0.030287       0.000345
                          1       8    5dyz              6.132625       5.261160
                                                         2.625196       1.102547
                                                         1.045457       4.463906
                                                         0.478316      -1.612005
                                                         0.178617       0.243416
                                                         0.075145      -0.039072
                                                         0.030287       0.000598
                          1       8    5dz2              6.132625       3.037532
                                                         2.625196       0.636556
                                                         1.045457       2.577237
                                                         0.478316      -0.930692
                                                         0.178617       0.140536
                                                         0.075145      -0.022558
                                                         0.030287       0.000345

     GTH Potential information for                                    GTH-PBE-q4

       Description:                       Goedecker-Teter-Hutter pseudopotential
                                           Goedecker et al., PRB 54, 1703 (1996)
                                          Hartwigsen et al., PRB 58, 3641 (1998)
                                                      Krack, TCA 114, 145 (2005)

       Gaussian exponent of the core charge distribution:               4.364419
       Electronic configuration (s p d ...):                               2   2

       Parameters of the local part of the GTH pseudopotential:

                          rloc        C1          C2          C3          C4
                        0.338471   -8.803674    1.339211

       Parameters of the non-local part of the GTH pseudopotential:

                   l      r(l)      h(i,j,l)

                   0    0.302576    9.622487
                   1    0.291507

  3. Atomic kind: Au                                    Number of atoms:     504

     Orbital Basis Set                                        DZVP-MOLOPT-SR-GTH

       Number of orbital shell sets:                                           1
       Number of orbital shells:                                               7
       Number of primitive Cartesian functions:                                5
       Number of Cartesian basis functions:                                   30
       Number of spherical basis functions:                                   25
       Norm type:                                                              2

       Normalised Cartesian orbitals:

                        Set   Shell   Orbital            Exponent    Coefficient

                          1       1    2s                2.950008       0.074626
                                                         1.563057      -0.007898
                                                         0.666664      -0.297688
                                                         0.251083       0.136809
                                                         0.081714       0.088198

                          1       2    3s                2.950008       0.228793
                                                         1.563057      -0.295041
                                                         0.666664       0.955676
                                                         0.251083      -0.809517
                                                         0.081714       0.207484

                          1       3    3px               2.950008       0.148824
                                                         1.563057       0.025430
                                                         0.666664      -0.123003
                                                         0.251083       0.033648
                                                         0.081714       0.059008
                          1       3    3py               2.950008       0.148824
                                                         1.563057       0.025430
                                                         0.666664      -0.123003
                                                         0.251083       0.033648
                                                         0.081714       0.059008
                          1       3    3pz               2.950008       0.148824
                                                         1.563057       0.025430
                                                         0.666664      -0.123003
                                                         0.251083       0.033648
                                                         0.081714       0.059008

                          1       4    4px               2.950008       0.169603
                                                         1.563057      -0.791540
                                                         0.666664       0.759522
                                                         0.251083      -0.513201
                                                         0.081714       0.071875
                          1       4    4py               2.950008       0.169603
                                                         1.563057      -0.791540
                                                         0.666664       0.759522
                                                         0.251083      -0.513201
                                                         0.081714       0.071875
                          1       4    4pz               2.950008       0.169603
                                                         1.563057      -0.791540
                                                         0.666664       0.759522
                                                         0.251083      -0.513201
                                                         0.081714       0.071875

                          1       5    4dx2              2.950008      -0.139595
                                                         1.563057       1.319655
                                                         0.666664       0.377081
                                                         0.251083       0.046872
                                                         0.081714       0.001393
                          1       5    4dxy              2.950008      -0.241786
                                                         1.563057       2.285709
                                                         0.666664       0.653124
                                                         0.251083       0.081185
                                                         0.081714       0.002412
                          1       5    4dxz              2.950008      -0.241786
                                                         1.563057       2.285709
                                                         0.666664       0.653124
                                                         0.251083       0.081185
                                                         0.081714       0.002412
                          1       5    4dy2              2.950008      -0.139595
                                                         1.563057       1.319655
                                                         0.666664       0.377081
                                                         0.251083       0.046872
                                                         0.081714       0.001393
                          1       5    4dyz              2.950008      -0.241786
                                                         1.563057       2.285709
                                                         0.666664       0.653124
                                                         0.251083       0.081185
                                                         0.081714       0.002412
                          1       5    4dz2              2.950008      -0.139595
                                                         1.563057       1.319655
                                                         0.666664       0.377081
                                                         0.251083       0.046872
                                                         0.081714       0.001393

                          1       6    5dx2              2.950008      -0.047309
                                                         1.563057      -0.613535
                                                         0.666664      -0.083031
                                                         0.251083      -0.023136
                                                         0.081714       0.021870
                          1       6    5dxy              2.950008      -0.081942
                                                         1.563057      -1.062673
                                                         0.666664      -0.143813
                                                         0.251083      -0.040072
                                                         0.081714       0.037880
                          1       6    5dxz              2.950008      -0.081942
                                                         1.563057      -1.062673
                                                         0.666664      -0.143813
                                                         0.251083      -0.040072
                                                         0.081714       0.037880
                          1       6    5dy2              2.950008      -0.047309
                                                         1.563057      -0.613535
                                                         0.666664      -0.083031
                                                         0.251083      -0.023136
                                                         0.081714       0.021870
                          1       6    5dyz              2.950008      -0.081942
                                                         1.563057      -1.062673
                                                         0.666664      -0.143813
                                                         0.251083      -0.040072
                                                         0.081714       0.037880
                          1       6    5dz2              2.950008      -0.047309
                                                         1.563057      -0.613535
                                                         0.666664      -0.083031
                                                         0.251083      -0.023136
                                                         0.081714       0.021870

                          1       7    5fx3              2.950008      -0.072925
                                                         1.563057      -0.623736
                                                         0.666664      -0.068759
                                                         0.251083      -0.019565
                                                         0.081714       0.005642
                          1       7    5fx2y             2.950008      -0.163065
                                                         1.563057      -1.394716
                                                         0.666664      -0.153751
                                                         0.251083      -0.043748
                                                         0.081714       0.012617
                          1       7    5fx2z             2.950008      -0.163065
                                                         1.563057      -1.394716
                                                         0.666664      -0.153751
                                                         0.251083      -0.043748
                                                         0.081714       0.012617
                          1       7    5fxy2             2.950008      -0.163065
                                                         1.563057      -1.394716
                                                         0.666664      -0.153751
                                                         0.251083      -0.043748
                                                         0.081714       0.012617
                          1       7    5fxyz             2.950008      -0.282436
                                                         1.563057      -2.415719
                                                         0.666664      -0.266304
                                                         0.251083      -0.075774
                                                         0.081714       0.021853
                          1       7    5fxz2             2.950008      -0.163065
                                                         1.563057      -1.394716
                                                         0.666664      -0.153751
                                                         0.251083      -0.043748
                                                         0.081714       0.012617
                          1       7    5fy3              2.950008      -0.072925
                                                         1.563057      -0.623736
                                                         0.666664      -0.068759
                                                         0.251083      -0.019565
                                                         0.081714       0.005642
                          1       7    5fy2z             2.950008      -0.163065
                                                         1.563057      -1.394716
                                                         0.666664      -0.153751
                                                         0.251083      -0.043748
                                                         0.081714       0.012617
                          1       7    5fyz2             2.950008      -0.163065
                                                         1.563057      -1.394716
                                                         0.666664      -0.153751
                                                         0.251083      -0.043748
                                                         0.081714       0.012617
                          1       7    5fz3              2.950008      -0.072925
                                                         1.563057      -0.623736
                                                         0.666664      -0.068759
                                                         0.251083      -0.019565
                                                         0.081714       0.005642

     GTH Potential information for                                   GTH-PBE-q11

       Description:                       Goedecker-Teter-Hutter pseudopotential
                                           Goedecker et al., PRB 54, 1703 (1996)
                                          Hartwigsen et al., PRB 58, 3641 (1998)
                                                      Krack, TCA 114, 145 (2005)

       Gaussian exponent of the core charge distribution:               1.436369
       Electronic configuration (s p d ...):                           1   0  10

       Parameters of the local part of the GTH pseudopotential:

                          rloc        C1          C2          C3          C4
                        0.590000   10.517179

       Parameters of the non-local part of the GTH pseudopotential:

                   l      r(l)      h(i,j,l)

                   0    0.543847    5.786811   -2.250680
                                   -2.250680    2.905615
                   1    0.609173    4.284049   -4.071285
                                   -4.071285    4.817210
                   2    0.437309   -7.403281    3.010193
                                    3.010193   -3.413238


 MOLECULE KIND INFORMATION


 All atoms are their own molecule, skipping detailed information


 TOTAL NUMBERS AND MAXIMUM NUMBERS

  Total number of            - Atomic kinds:                                   3
                             - Atoms:                                        946
                             - Shell sets:                                   946
                             - Shells:                                      6170
                             - Primitive Cartesian functions:               5614
                             - Cartesian basis functions:                  21258
                             - Spherical basis functions:                  18450

  Maximum angular momentum of- Orbital basis functions:                        3
                             - Local part of the GTH pseudopotential:          2
                             - Non-local part of the GTH pseudopotential:      4


 MODULE QUICKSTEP:  ATOMIC COORDINATES IN angstrom

  Atom  Kind  Element       X           Y           Z          Z(eff)       Mass

       1     1 H    1    7.545548   13.821002   21.151120      1.0000       1.0079
       2     1 H    1    8.052357   16.215997   21.181869      1.0000       1.0079
       3     1 H    1    8.496223   18.142025   21.195406      1.0000       1.0079
       4     2 C    6    8.584297   14.139572   21.233771      4.0000      12.0107
       5     2 C    6    8.881431   15.514286   21.237950      4.0000      12.0107
       6     1 H    1    9.086147   20.517771   21.206588      1.0000       1.0079
       7     1 H    1    9.367902   12.134880   21.282605      1.0000       1.0079
       8     2 C    6    9.547794   18.411008   21.268575      4.0000      12.0107
       9     2 C    6    9.595644   13.200604   21.302160      4.0000      12.0107
      10     2 C    6    9.880736   19.774958   21.275306      4.0000      12.0107
      11     2 C    6   10.201542   15.984629   21.344841      4.0000      12.0107
      12     2 C    6   10.529806   17.409906   21.354949      4.0000      12.0107
      13     2 C    6   10.951726   13.616657   21.382090      4.0000      12.0107
      14     2 C    6   11.202348   20.177133   21.343266      4.0000      12.0107
      15     2 C    6   11.258154   15.025372   21.406246      4.0000      12.0107
      16     1 H    1   11.462576   21.235589   21.334098      1.0000       1.0079
      17     2 C    6   11.900244   17.810677   21.430053      4.0000      12.0107
      18     1 H    1   11.756952   11.615519   21.348759      1.0000       1.0079
      19     2 C    6   11.997054   12.678633   21.398396      4.0000      12.0107
      20     2 C    6   12.239818   19.210905   21.417598      4.0000      12.0107
      21     2 C    6   12.619680   15.442588   21.469586      4.0000      12.0107
      22     2 C    6   12.941413   16.840565   21.481031      4.0000      12.0107
      23     2 C    6   13.343826   13.075680   21.445749      4.0000      12.0107
      24     2 C    6   13.591770   19.598144   21.437500      4.0000      12.0107
      25     1 H    1   13.838335   20.660118   21.395974      1.0000       1.0079
      26     2 C    6   13.661490   14.481066   21.489114      4.0000      12.0107
      27     2 C    6   14.300496   17.249637   21.508338      4.0000      12.0107
      28     1 H    1   14.156245   11.072519   21.362191      1.0000       1.0079
      29     2 C    6   14.396181   12.135114   21.423997      4.0000      12.0107
      30     2 C    6   14.628802   18.655272   21.477126      4.0000      12.0107
      31     2 C    6   15.022210   14.893038   21.516552      4.0000      12.0107
      32     2 C    6   15.342050   16.285316   21.526871      4.0000      12.0107
      33     2 C    6   15.735932   12.532293   21.459628      4.0000      12.0107
      34     2 C    6   15.985127   19.041908   21.445316      4.0000      12.0107
      35     1 H    1   16.231606   20.103016   21.385082      1.0000       1.0079
      36     2 C    6   16.067191   13.929983   21.508045      4.0000      12.0107
      37     2 C    6   16.704982   16.694691   21.518234      4.0000      12.0107
      38     1 H    1   16.554615   10.522908   21.355523      1.0000       1.0079
      39     2 C    6   16.797935   11.583643   21.420666      4.0000      12.0107
      40     2 C    6   17.020070   18.100041   21.471031      4.0000      12.0107
      41     2 C    6   17.432864   14.340217   21.518752      4.0000      12.0107
      42     2 C    6   17.751989   15.742975   21.522241      4.0000      12.0107
      43     2 C    6   18.107708   11.989601   21.443426      4.0000      12.0107
      44     2 C    6   18.375400   18.497356   21.433384      4.0000      12.0107
      45     1 H    1   18.574682   19.565080   21.374528      1.0000       1.0079
      46     2 C    6   18.466979   13.366576   21.497042      4.0000      12.0107
      47     1 H    1   18.880699   11.226729   21.396801      1.0000       1.0079
      48     2 C    6   19.117797   16.170924   21.516789      4.0000      12.0107
      49     2 C    6   19.426321   17.583446   21.480769      4.0000      12.0107
      50     2 C    6   19.849462   13.797560   21.498034      4.0000      12.0107
      51     2 C    6   20.157189   15.210254   21.517095      4.0000      12.0107
      52     1 H    1   20.402968   20.153612   21.379938      1.0000       1.0079
      53     2 C    6   20.811024   18.013780   21.480948      4.0000      12.0107
      54     1 H    1   20.699404   11.814236   21.397790      1.0000       1.0079
      55     2 C    6   20.899206   12.882060   21.450835      4.0000      12.0107
      56     2 C    6   21.174542   19.388890   21.428685      4.0000      12.0107
      57     2 C    6   21.523503   15.637660   21.518797      4.0000      12.0107
      58     2 C    6   21.843848   17.039836   21.512107      4.0000      12.0107
      59     2 C    6   22.253049   13.280120   21.460589      4.0000      12.0107
      60     2 C    6   22.486674   19.793374   21.418367      4.0000      12.0107
      61     1 H    1   22.729937   20.854306   21.356341      1.0000       1.0079
      62     2 C    6   22.567279   14.684527   21.507755      4.0000      12.0107
      63     2 C    6   23.210792   17.449752   21.509507      4.0000      12.0107
      64     1 H    1   23.042145   11.275105   21.343124      1.0000       1.0079
      65     2 C    6   23.290000   12.335542   21.409792      4.0000      12.0107
      66     2 C    6   23.546456   18.845139   21.463152      4.0000      12.0107
      67     2 C    6   23.931299   15.092905   21.516522      4.0000      12.0107
      68     2 C    6   24.253508   16.484679   21.522031      4.0000      12.0107
      69     2 C    6   24.644196   12.723062   21.444850      4.0000      12.0107
      70     2 C    6   24.890894   19.239186   21.423920      4.0000      12.0107
      71     1 H    1   25.132028   20.301154   21.357861      1.0000       1.0079
      72     2 C    6   24.968651   14.126622   21.502780      4.0000      12.0107
      73     2 C    6   25.613333   16.894588   21.507458      4.0000      12.0107
      74     1 H    1   25.448919   10.719593   21.342119      1.0000       1.0079
      75     2 C    6   25.690782   11.781253   21.410360      4.0000      12.0107
      76     2 C    6   25.938047   18.298127   21.453936      4.0000      12.0107
      77     2 C    6   26.328169   14.536115   21.517769      4.0000      12.0107
      78     2 C    6   26.650920   15.928295   21.517524      4.0000      12.0107
      79     2 C    6   27.035045   12.174952   21.457733      4.0000      12.0107
      80     2 C    6   27.292364   18.684249   21.407114      4.0000      12.0107
      81     1 H    1   27.540653   19.744429   21.338861      1.0000       1.0079
      82     2 C    6   27.370585   13.570079   21.508270      4.0000      12.0107
      83     2 C    6   28.014852   16.335903   21.506444      4.0000      12.0107
      84     1 H    1   27.848868   10.164656   21.357540      1.0000       1.0079
      85     2 C    6   28.093427   11.225016   21.423017      4.0000      12.0107
      86     2 C    6   28.330049   17.739725   21.451534      4.0000      12.0107
      87     2 C    6   28.737280   13.979111   21.519437      4.0000      12.0107
      88     2 C    6   29.058800   15.381677   21.519872      4.0000      12.0107
      89     2 C    6   29.404904   11.628646   21.446309      4.0000      12.0107
      90     2 C    6   29.685670   18.135668   21.432671      4.0000      12.0107
      91     1 H    1   29.887128   19.202818   21.370172      1.0000       1.0079
      92     2 C    6   29.767948   13.003974   21.496294      4.0000      12.0107
      93     1 H    1   30.176338   10.863727   21.403663      1.0000       1.0079
      94     2 C    6   30.424808   15.807833   21.519759      4.0000      12.0107
      95     2 C    6   30.734676   17.219813   21.490267      4.0000      12.0107
      96     2 C    6   31.152570   13.432768   21.491686      4.0000      12.0107
      97     2 C    6   31.462561   14.844531   21.520356      4.0000      12.0107
      98     1 H    1   31.714610   19.788784   21.406203      1.0000       1.0079
      99     2 C    6   32.120267   17.647957   21.495660      4.0000      12.0107
     100     1 H    1   31.998737   11.449261   21.372742      1.0000       1.0079
     101     2 C    6   32.200551   12.516280   21.434549      4.0000      12.0107
     102     2 C    6   32.485272   19.022923   21.447259      4.0000      12.0107
     103     2 C    6   32.828691   15.269935   21.520448      4.0000      12.0107
     104     2 C    6   33.150917   16.672242   21.519120      4.0000      12.0107
     105     2 C    6   33.555667   12.911482   21.453407      4.0000      12.0107
     106     2 C    6   33.797443   19.425208   21.424465      4.0000      12.0107
     107     1 H    1   34.042735   20.485495   21.360489      1.0000       1.0079
     108     2 C    6   33.871837   14.314891   21.508130      4.0000      12.0107
     109     2 C    6   34.518316   17.079846   21.507948      4.0000      12.0107
     110     1 H    1   34.341826   10.905782   21.340488      1.0000       1.0079
     111     2 C    6   34.591548   11.965603   21.408913      4.0000      12.0107
     112     2 C    6   34.855562   18.474595   21.457849      4.0000      12.0107
     113     2 C    6   35.235961   14.721039   21.518434      4.0000      12.0107
     114     2 C    6   35.560078   16.112814   21.517756      4.0000      12.0107
     115     2 C    6   35.945803   12.350265   21.456146      4.0000      12.0107
     116     2 C    6   36.200602   18.866616   21.410142      4.0000      12.0107
     117     1 H    1   36.443580   19.928065   21.342317      1.0000       1.0079
     118     2 C    6   36.272131   13.753376   21.508969      4.0000      12.0107
     119     2 C    6   36.920245   16.520496   21.501954      4.0000      12.0107
     120     1 H    1   36.748151   10.346010   21.359944      1.0000       1.0079
     121     2 C    6   36.990975   11.407573   21.426347      4.0000      12.0107
     122     2 C    6   37.246621   17.923637   21.443128      4.0000      12.0107
     123     2 C    6   37.632265   14.161445   21.523228      4.0000      12.0107
     124     2 C    6   37.956445   15.552801   21.516055      4.0000      12.0107
     125     2 C    6   38.335546   11.799667   21.465375      4.0000      12.0107
     126     2 C    6   38.601806   18.308868   21.406431      4.0000      12.0107
     127     1 H    1   38.851131   19.368882   21.338296      1.0000       1.0079
     128     2 C    6   38.673149   13.194593   21.511403      4.0000      12.0107
     129     2 C    6   39.321218   15.958906   21.506768      4.0000      12.0107
     130     1 H    1   39.147856    9.788871   21.357916      1.0000       1.0079
     131     2 C    6   39.393234   10.849323   21.419962      4.0000      12.0107
     132     2 C    6   39.637830   17.362815   21.457361      4.0000      12.0107
     133     2 C    6   40.040477   13.602211   21.514090      4.0000      12.0107
     134     2 C    6   40.363342   15.003860   21.519612      4.0000      12.0107
     135     2 C    6   40.705766   11.251625   21.430492      4.0000      12.0107
     136     2 C    6   40.992971   17.758086   21.446956      4.0000      12.0107
     137     1 H    1   41.195132   18.825417   21.392058      1.0000       1.0079
     138     2 C    6   41.071189   12.626192   21.483824      4.0000      12.0107
     139     1 H    1   41.476110   10.485780   21.380720      1.0000       1.0079
     140     2 C    6   41.730551   15.428475   21.517900      4.0000      12.0107
     141     2 C    6   42.041264   16.840542   21.497153      4.0000      12.0107
     142     2 C    6   42.456256   13.053690   21.484848      4.0000      12.0107
     143     2 C    6   42.767770   14.465424   21.519952      4.0000      12.0107
     144     1 H    1   43.017482   19.409137   21.399928      1.0000       1.0079
     145     2 C    6   43.425089   17.267993   21.497119      4.0000      12.0107
     146     1 H    1   43.302658   11.069711   21.381459      1.0000       1.0079
     147     2 C    6   43.504568   12.136968   21.439021      4.0000      12.0107
     148     2 C    6   43.788419   18.644054   21.445203      4.0000      12.0107
     149     2 C    6   44.134582   14.889809   21.525220      4.0000      12.0107
     150     2 C    6   44.457110   16.291735   21.520197      4.0000      12.0107
     151     2 C    6   44.860572   12.530796   21.477474      4.0000      12.0107
     152     2 C    6   45.099348   19.046385   21.423343      4.0000      12.0107
     153     1 H    1   45.345528   20.106585   21.359879      1.0000       1.0079
     154     2 C    6   45.179130   13.935307   21.522606      4.0000      12.0107
     155     2 C    6   45.824024   16.698184   21.509129      4.0000      12.0107
     156     1 H    1   45.642926   10.525599   21.392636      1.0000       1.0079
     157     2 C    6   45.892550   11.586004   21.452371      4.0000      12.0107
     158     2 C    6   46.159161   18.094999   21.460465      4.0000      12.0107
     159     2 C    6   46.543022   14.340832   21.529848      4.0000      12.0107
     160     2 C    6   46.866466   15.732224   21.517748      4.0000      12.0107
     161     2 C    6   47.249670   11.968781   21.481832      4.0000      12.0107
     162     2 C    6   47.500010   18.488312   21.424353      4.0000      12.0107
     163     1 H    1   47.743026   19.550202   21.362418      1.0000       1.0079
     164     2 C    6   47.581833   13.373530   21.511233      4.0000      12.0107
     165     2 C    6   48.228379   16.140232   21.488854      4.0000      12.0107
     166     1 H    1   48.033960    9.961559   21.398436      1.0000       1.0079
     167     2 C    6   48.283816   11.022788   21.439293      4.0000      12.0107
     168     2 C    6   48.549839   17.544703   21.444684      4.0000      12.0107
     169     2 C    6   48.941942   13.778634   21.481855      4.0000      12.0107
     170     2 C    6   49.267575   15.175700   21.469442      4.0000      12.0107
     171     2 C    6   49.636607   11.406104   21.415948      4.0000      12.0107
     172     2 C    6   49.897771   17.937726   21.396816      4.0000      12.0107
     173     2 C    6   49.980193   12.805397   21.429217      4.0000      12.0107
     174     1 H    1   50.141014   19.000077   21.346632      1.0000       1.0079
     175     2 C    6   50.630204   15.588895   21.405599      4.0000      12.0107
     176     1 H    1   50.407821    9.379040   21.328688      1.0000       1.0079
     177     2 C    6   50.940527   16.996699   21.380890      4.0000      12.0107
     178     2 C    6   50.671135   10.436751   21.337550      4.0000      12.0107
     179     2 C    6   51.351678   13.202254   21.352391      4.0000      12.0107
     180     2 C    6   51.684186   14.626575   21.345068      4.0000      12.0107
     181     2 C    6   51.993766   10.835246   21.267762      4.0000      12.0107
     182     2 C    6   52.297734   17.408738   21.300698      4.0000      12.0107
     183     2 C    6   52.330577   12.198324   21.262038      4.0000      12.0107
     184     1 H    1   52.528575   18.473757   21.279885      1.0000       1.0079
     185     2 C    6   53.005796   15.093024   21.240818      4.0000      12.0107
     186     1 H    1   52.786117   10.090205   21.196516      1.0000       1.0079
     187     2 C    6   53.306697   16.466767   21.234638      4.0000      12.0107
     188     1 H    1   53.382772   12.464334   21.187017      1.0000       1.0079
     189     1 H    1   53.832985   14.388920   21.186596      1.0000       1.0079
     190     1 H    1   54.346373   16.782506   21.152871      1.0000       1.0079
     191     3 Au  79    0.002384   -0.005509   18.140350     11.0000     196.9666
     192     3 Au  79    1.473153    2.546998   18.140425     11.0000     196.9666
     193     3 Au  79   -0.000267    5.101528   18.141439     11.0000     196.9666
     194     3 Au  79    1.477943    7.651638   18.142226     11.0000     196.9666
     195     3 Au  79    0.001150   10.203553   18.141402     11.0000     196.9666
     196     3 Au  79    1.474349   12.757825   18.139374     11.0000     196.9666
     197     3 Au  79    0.001351   15.313093   18.140359     11.0000     196.9666
     198     3 Au  79    1.470975   17.866471   18.141597     11.0000     196.9666
     199     3 Au  79    0.003187   20.421309   18.141580     11.0000     196.9666
     200     3 Au  79    1.470759   22.972411   18.140436     11.0000     196.9666
     201     3 Au  79    0.004400   25.524082   18.140115     11.0000     196.9666
     202     3 Au  79    1.470873   28.074833   18.145496     11.0000     196.9666
     203     3 Au  79    2.952431   -0.009025   18.135223     11.0000     196.9666
     204     3 Au  79    4.424363    2.548098   18.140210     11.0000     196.9666
     205     3 Au  79    2.948572    5.098683   18.144350     11.0000     196.9666
     206     3 Au  79    4.428999    7.648622   18.145115     11.0000     196.9666
     207     3 Au  79    2.947841   10.204743   18.143529     11.0000     196.9666
     208     3 Au  79    4.427439   12.757697   18.155512     11.0000     196.9666
     209     3 Au  79    2.945474   15.312248   18.151951     11.0000     196.9666
     210     3 Au  79    4.420218   17.867601   18.156893     11.0000     196.9666
     211     3 Au  79    2.952623   20.418621   18.144254     11.0000     196.9666
     212     3 Au  79    4.422474   22.970957   18.147704     11.0000     196.9666
     213     3 Au  79    2.954801   25.521708   18.146254     11.0000     196.9666
     214     3 Au  79    4.421651   28.074789   18.140834     11.0000     196.9666
     215     3 Au  79    5.903097   -0.008615   18.141626     11.0000     196.9666
     216     3 Au  79    7.374665    2.549068   18.136222     11.0000     196.9666
     217     3 Au  79    5.900473    5.097333   18.143077     11.0000     196.9666
     218     3 Au  79    7.377311    7.653414   18.146609     11.0000     196.9666
     219     3 Au  79    5.894901   10.198738   18.156218     11.0000     196.9666
     220     3 Au  79    7.362515   12.743807   18.124564     11.0000     196.9666
     221     3 Au  79    5.879461   15.317740   18.161426     11.0000     196.9666
     222     3 Au  79    7.359066   17.873281   18.158000     11.0000     196.9666
     223     3 Au  79    5.896638   20.423883   18.158657     11.0000     196.9666
     224     3 Au  79    7.374991   22.973434   18.160253     11.0000     196.9666
     225     3 Au  79    5.902172   25.520936   18.143271     11.0000     196.9666
     226     3 Au  79    7.375276   28.075645   18.138512     11.0000     196.9666
     227     3 Au  79    8.850817   -0.005996   18.135659     11.0000     196.9666
     228     3 Au  79   10.325022    2.552883   18.132288     11.0000     196.9666
     229     3 Au  79    8.853675    5.101914   18.143829     11.0000     196.9666
     230     3 Au  79   10.324681    7.656204   18.152779     11.0000     196.9666
     231     3 Au  79    8.854474   10.198637   18.163124     11.0000     196.9666
     232     3 Au  79   10.309613   12.748680   18.099353     11.0000     196.9666
     233     3 Au  79    8.813538   15.326614   18.122468     11.0000     196.9666
     234     3 Au  79   10.306645   17.866655   18.079657     11.0000     196.9666
     235     3 Au  79    8.835242   20.431360   18.117348     11.0000     196.9666
     236     3 Au  79   10.326330   22.977592   18.157025     11.0000     196.9666
     237     3 Au  79    8.852606   25.522908   18.142433     11.0000     196.9666
     238     3 Au  79   10.326509   28.078364   18.140327     11.0000     196.9666
     239     3 Au  79   11.800419   -0.004969   18.127536     11.0000     196.9666
     240     3 Au  79   13.274325    2.557430   18.135813     11.0000     196.9666
     241     3 Au  79   11.798321    5.106272   18.146059     11.0000     196.9666
     242     3 Au  79   13.273725    7.657894   18.163003     11.0000     196.9666
     243     3 Au  79   11.798120   10.199942   18.171662     11.0000     196.9666
     244     3 Au  79   13.267954   12.747154   18.107119     11.0000     196.9666
     245     3 Au  79   11.789894   15.309050   18.083289     11.0000     196.9666
     246     3 Au  79   13.254675   17.874102   18.089135     11.0000     196.9666
     247     3 Au  79   11.794373   20.441377   18.120929     11.0000     196.9666
     248     3 Au  79   13.277761   22.971153   18.176968     11.0000     196.9666
     249     3 Au  79   11.799160   25.521620   18.146880     11.0000     196.9666
     250     3 Au  79   13.274212   28.071946   18.140404     11.0000     196.9666
     251     3 Au  79   14.743679   -0.005680   18.131053     11.0000     196.9666
     252     3 Au  79   16.217824    2.550791   18.133720     11.0000     196.9666
     253     3 Au  79   14.745747    5.109664   18.143595     11.0000     196.9666
     254     3 Au  79   16.220325    7.661187   18.169012     11.0000     196.9666
     255     3 Au  79   14.738813   10.197236   18.158732     11.0000     196.9666
     256     3 Au  79   16.215314   12.760607   18.090552     11.0000     196.9666
     257     3 Au  79   14.730859   15.316417   18.108356     11.0000     196.9666
     258     3 Au  79   16.202514   17.867018   18.101262     11.0000     196.9666
     259     3 Au  79   14.746989   20.426957   18.154241     11.0000     196.9666
     260     3 Au  79   16.220380   22.960619   18.182362     11.0000     196.9666
     261     3 Au  79   14.749136   25.515861   18.149850     11.0000     196.9666
     262     3 Au  79   16.220160   28.069775   18.135335     11.0000     196.9666
     263     3 Au  79   17.699142   -0.008831   18.132290     11.0000     196.9666
     264     3 Au  79   19.166383    2.555415   18.136725     11.0000     196.9666
     265     3 Au  79   17.698741    5.107229   18.150095     11.0000     196.9666
     266     3 Au  79   19.162925    7.661387   18.176642     11.0000     196.9666
     267     3 Au  79   17.695521   10.202306   18.166596     11.0000     196.9666
     268     3 Au  79   19.164024   12.758551   18.117108     11.0000     196.9666
     269     3 Au  79   17.685779   15.318311   18.119179     11.0000     196.9666
     270     3 Au  79   19.157697   17.874456   18.126828     11.0000     196.9666
     271     3 Au  79   17.695311   20.423727   18.172125     11.0000     196.9666
     272     3 Au  79   19.173154   22.960539   18.182494     11.0000     196.9666
     273     3 Au  79   17.697376   25.510754   18.153989     11.0000     196.9666
     274     3 Au  79   19.170544   28.069381   18.146021     11.0000     196.9666
     275     3 Au  79   20.639584   -0.008373   18.129478     11.0000     196.9666
     276     3 Au  79   22.115205    2.554912   18.139524     11.0000     196.9666
     277     3 Au  79   20.644570    5.108864   18.155222     11.0000     196.9666
     278     3 Au  79   22.109468    7.660950   18.172219     11.0000     196.9666
     279     3 Au  79   20.640865   10.204667   18.196023     11.0000     196.9666
     280     3 Au  79   22.109653   12.748462   18.124032     11.0000     196.9666
     281     3 Au  79   20.634241   15.313636   18.115728     11.0000     196.9666
     282     3 Au  79   22.108758   17.861338   18.093473     11.0000     196.9666
     283     3 Au  79   20.636811   20.422082   18.159388     11.0000     196.9666
     284     3 Au  79   22.122001   22.966177   18.172766     11.0000     196.9666
     285     3 Au  79   20.635861   25.513335   18.153545     11.0000     196.9666
     286     3 Au  79   22.120178   28.069101   18.142281     11.0000     196.9666
     287     3 Au  79   23.584271   -0.005277   18.123228     11.0000     196.9666
     288     3 Au  79   25.061042    2.552388   18.134151     11.0000     196.9666
     289     3 Au  79   23.586538    5.109720   18.148172     11.0000     196.9666
     290     3 Au  79   25.057366    7.660251   18.170656     11.0000     196.9666
     291     3 Au  79   23.582316   10.197506   18.170500     11.0000     196.9666
     292     3 Au  79   25.063568   12.752485   18.102396     11.0000     196.9666
     293     3 Au  79   23.580472   15.306479   18.110920     11.0000     196.9666
     294     3 Au  79   25.050512   17.865759   18.092272     11.0000     196.9666
     295     3 Au  79   23.586733   20.424074   18.137328     11.0000     196.9666
     296     3 Au  79   25.062462   22.962518   18.177138     11.0000     196.9666
     297     3 Au  79   23.584583   25.514745   18.148854     11.0000     196.9666
     298     3 Au  79   25.062712   28.070529   18.136611     11.0000     196.9666
     299     3 Au  79   26.536671   -0.006715   18.128285     11.0000     196.9666
     300     3 Au  79   28.004873    2.554306   18.133907     11.0000     196.9666
     301     3 Au  79   26.535284    5.110145   18.145346     11.0000     196.9666
     302     3 Au  79   28.002596    7.660150   18.173598     11.0000     196.9666
     303     3 Au  79   26.532509   10.198124   18.149502     11.0000     196.9666
     304     3 Au  79   28.005518   12.763886   18.088084     11.0000     196.9666
     305     3 Au  79   26.530601   15.316764   18.115661     11.0000     196.9666
     306     3 Au  79   27.999330   17.871329   18.116276     11.0000     196.9666
     307     3 Au  79   26.535269   20.422781   18.164204     11.0000     196.9666
     308     3 Au  79   28.010872   22.956355   18.171826     11.0000     196.9666
     309     3 Au  79   26.533168   25.512801   18.147552     11.0000     196.9666
     310     3 Au  79   28.006412   28.067335   18.142847     11.0000     196.9666
     311     3 Au  79   29.478222   -0.009611   18.130313     11.0000     196.9666
     312     3 Au  79   30.956236    2.550696   18.142175     11.0000     196.9666
     313     3 Au  79   29.485833    5.108225   18.149560     11.0000     196.9666
     314     3 Au  79   30.951489    7.660042   18.172395     11.0000     196.9666
     315     3 Au  79   29.488095   10.203056   18.165893     11.0000     196.9666
     316     3 Au  79   30.963945   12.756642   18.121106     11.0000     196.9666
     317     3 Au  79   29.482594   15.308266   18.117449     11.0000     196.9666
     318     3 Au  79   30.949795   17.865791   18.120834     11.0000     196.9666
     319     3 Au  79   29.484045   20.416228   18.182279     11.0000     196.9666
     320     3 Au  79   30.961820   22.957518   18.175601     11.0000     196.9666
     321     3 Au  79   29.477325   25.510791   18.150825     11.0000     196.9666
     322     3 Au  79   30.961062   28.067688   18.143628     11.0000     196.9666
     323     3 Au  79   32.426855   -0.006085   18.129559     11.0000     196.9666
     324     3 Au  79   33.905584    2.552566   18.142113     11.0000     196.9666
     325     3 Au  79   32.429826    5.109208   18.149867     11.0000     196.9666
     326     3 Au  79   33.902422    7.662065   18.170089     11.0000     196.9666
     327     3 Au  79   32.428687   10.202150   18.184708     11.0000     196.9666
[...]
 flops    22 x    17 x     9          25132871808       0.0%      0.0%    100.0%
 flops     9 x    17 x    22          25132871808       0.0%      0.0%    100.0%
 flops    22 x    17 x    22          29687150592       0.0%      0.0%    100.0%
 flops     9 x    17 x    25          99960285600       0.0%      0.0%    100.0%
 flops    25 x    17 x     9          99960285600       0.0%      0.0%    100.0%
 flops    22 x    17 x    25         118073894400       0.0%      0.0%    100.0%
 flops    25 x    17 x    22         118073894400       0.0%      0.0%    100.0%
 flops    25 x    17 x    25         469612080000       0.0%      0.0%    100.0%
 flops     9 x     9 x    32        1230718748544       0.0%      0.0%    100.0%
 flops    22 x     9 x    32        1264811746176       0.0%      0.0%    100.0%
 flops     9 x    22 x    32        1267261421184       0.0%      0.0%    100.0%
 flops    22 x    22 x    32        1804593922560       0.0%      0.0%    100.0%
 flops     9 x    32 x     9        4245439329792       0.0%      0.0%    100.0%
 flops    25 x     9 x    32        4506592204800       0.0%      0.0%    100.0%
 flops    22 x    25 x    32        4549219699200       0.0%      0.0%    100.0%
 flops    25 x    22 x    32        4582005753600       0.0%      0.0%    100.0%
 flops     9 x    25 x    32        4636288324800       0.0%      0.0%    100.0%
 flops    22 x    32 x     9        5014747127808       0.0%      0.0%    100.0%
 flops     9 x    32 x    22        5014747127808       0.0%      0.0%    100.0%
 flops     9 x     9 x     9        5388102994536       0.0%      0.2%     99.8%
 flops    22 x    32 x    22        5923459694592       0.0%      0.0%    100.0%
 flops    22 x     9 x     9        6066262132128       0.0%      0.1%     99.9%
 flops     9 x     9 x    22        6066262132128       0.0%      0.1%     99.9%
 flops     9 x    22 x     9        6364470651264       0.0%      0.1%     99.9%
 flops    22 x    22 x     9        7165517686272       0.0%      0.1%     99.9%
 flops     9 x    22 x    22        7165517686272       0.0%      0.1%     99.9%
 flops    22 x     9 x    22        7646060245824       0.0%      0.1%     99.9%
 flops    22 x    22 x    22        9031587941376       0.0%      0.0%    100.0%
 flops    25 x    25 x    32       15057403200000       0.0%      0.0%    100.0%
 flops     9 x    32 x    25       19945016985600       0.0%      0.0%    100.0%
 flops    25 x    32 x     9       19945016985600       0.0%      0.0%    100.0%
 flops     9 x     9 x    25       23357211734700       0.0%      0.1%     99.9%
 flops    25 x     9 x     9       23357211734700       0.0%      0.0%    100.0%
 flops    22 x    32 x    25       23559214694400       0.0%      0.0%    100.0%
 flops    25 x    32 x    22       23559214694400       0.0%      0.0%    100.0%
 flops     9 x    25 x     9       25313235544800       0.0%      0.1%     99.9%
 flops    22 x     9 x    25       26205228205200       0.0%      0.0%    100.0%
 flops    25 x     9 x    22       26205228205200       0.0%      0.1%     99.9%
 flops     9 x    22 x    25       27589726612800       0.0%      0.2%     99.8%
 flops    25 x    22 x     9       27589726612800       0.0%      0.1%     99.9%
 flops    22 x    25 x     9       28499218070400       0.0%      0.0%    100.0%
 flops     9 x    25 x    22       28499218070400       0.0%      0.4%     99.6%
 flops    22 x    22 x    25       30953826604800       0.0%      0.0%    100.0%
 flops    25 x    22 x    22       30953826604800       0.0%      0.0%    100.0%
 flops    22 x    25 x    22       35921088403200       0.0%      0.0%    100.0%
 flops    25 x    32 x    25       93701422080000       0.0%      0.0%    100.0%
 flops    25 x     9 x    25       98931282660000       0.0%      0.0%    100.0%
 flops     9 x    25 x    25      109731867210000       0.0%      0.0%    100.0%
 flops    25 x    25 x     9      109731867210000       0.0%      0.0%    100.0%
 flops    25 x    22 x    25      116858427840000       0.0%      0.0%    100.0%
 flops    22 x    25 x    25      123111810360000       0.0%      0.0%    100.0%
 flops    25 x    25 x    22      123111810360000       0.0%      0.0%    100.0%
 flops    25 x    25 x    25      464777838000000       0.0%      0.0%    100.0%
 flops inhomo. stacks                           0       0.0%      0.0%      0.0%
 flops total                         1.776408E+15       0.0%      0.0%    100.0%
 flops max/rank                      9.531201E+12       0.0%      0.0%    100.0%
 matmuls inhomo. stacks                         0       0.0%      0.0%      0.0%
 matmuls total                       116759096721       0.0%      0.0%    100.0%
 number of processed stacks              29014848       0.0%      0.1%     99.9%
 average stack size                                     0.0    2870.3    4024.8
 marketing flops                     2.578317E+15
 -------------------------------------------------------------------------------
 # multiplications                            348
 max memory usage/rank               1.335026E+09
 # max total images/rank                        3
 # max 3D layers                                1
 # MPI messages exchanged                 2939904
 MPI messages size (bytes):
  total size                        17.974610E+12
  min size                         770.048000E+03
  max size                          14.619312E+06
  average size                       6.114012E+06
 MPI breakdown and total messages size (bytes):
             size <=      128                   0                        0
       128 < size <=     8192                   0                        0
      8192 < size <=    32768                   0                        0
     32768 < size <=   131072                   0                        0
    131072 < size <=  4194304             1085760            1551512307600
   4194304 < size <= 16777216             1854144           16423204838496
  16777216 < size                               0                        0
 -------------------------------------------------------------------------------

 *** WARNING in dbcsr_mm.F:294 :: Using a non-square number of MPI ranks ***
 *** might lead to poor performance. Used ranks: 192 Suggested: 196 400  ***

 -------------------------------------------------------------------------------
 -                                                                             -
 -                      DBCSR MESSAGE PASSING PERFORMANCE                      -
 -                                                                             -
 -------------------------------------------------------------------------------
 ROUTINE             CALLS      AVE VOLUME [Bytes]
 MP_Bcast               55                     12.
 MP_Allreduce         1346                     10.
 MP_Alltoall          6109                2587241.
 MP_ISend            33408                2883545.
 MP_IRecv            33408                2883540.
 -------------------------------------------------------------------------------

 -------------------------------------------------------------------------------
 -                                                                             -
 -                                GRID STATISTICS                              -
 -                                                                             -
 -------------------------------------------------------------------------------
 LP    KERNEL             BACKEND                              COUNT     PERCENT
 4     collocate ortho    REF                               59294136      19.77%
 4     integrate ortho    REF                               58620339      19.55%
 2     collocate ortho    REF                               25619184       8.54%
 2     integrate ortho    REF                               25308126       8.44%
 6     collocate ortho    REF                               24375648       8.13%
 6     integrate ortho    REF                               24098652       8.04%
 3     collocate ortho    REF                               22399496       7.47%
 3     integrate ortho    REF                               22095129       7.37%
 5     collocate ortho    REF                               18836224       6.28%
 5     integrate ortho    REF                               18622176       6.21%
 0     collocate general  REF                                 363264       0.12%
 0     integrate general  REF                                 181632       0.06%
 1     collocate ortho    REF                                  41720       0.01%
 -------------------------------------------------------------------------------

 MEMORY| Estimated peak process memory [MiB]                                1268

 -------------------------------------------------------------------------------
 ----                             MULTIGRID INFO                            ----
 -------------------------------------------------------------------------------
 count for grid        1:        6729135          cutoff [a.u.]          300.00
 count for grid        2:       13542891          cutoff [a.u.]          100.00
 count for grid        3:        8519193          cutoff [a.u.]           33.33
 count for grid        4:        6258282          cutoff [a.u.]           11.11
 count for grid        5:        4863566          cutoff [a.u.]            3.70
 count for grid        6:        1788743          cutoff [a.u.]            1.23
 total gridlevel count  :       41701810

 -------------------------------------------------------------------------------
 -                                                                             -
 -                         MESSAGE PASSING PERFORMANCE                         -
 -                                                                             -
 -------------------------------------------------------------------------------

 ROUTINE             CALLS      AVE VOLUME [Bytes]
 MP_Group                7
 MP_Bcast              311                2146510.
 MP_Allreduce         1473                   2279.
 MP_Sync               786
 MP_Alltoall          6976               15610795.
 MP_ISendRecv       148980                  69840.
 MP_Wait            157812
 MP_ISend            30582                 261985.
 MP_IRecv            30939                 259134.
 MP_Recv               530                4723200.
 MP_Write_All           21                1280160.
 -------------------------------------------------------------------------------


 -------------------------------------------------------------------------------
 -                                                                             -
 -                           R E F E R E N C E S                               -
 -                                                                             -
 -------------------------------------------------------------------------------
 
 CP2K version 8.1, the CP2K developers group (2020).
 CP2K is freely available from https://www.cp2k.org/ .

 Kuehne,Thomas D.; Iannuzzi,Marcella; Del Ben,Mauro;
 Rybkin,Vladimir V.; Seewald,Patrick; Stein,Frederick; Laino,Teodoro;
 Khaliullin,Rustam Z.; Schuett,Ole; Schiffmann,Florian; Golze,Dorothea;
 Wilhelm,Jan; Chulkov,Sergey; Bani-Hashemian,Mohammad Hossein;
 Weber,Valery; Borstnik,Urban; Taillefumier,Mathieu;
 Jakobovits,Alice Shoshana; Lazzaro,Alfio; Pabst,Hans; Mueller,Tiziano;
 Schade,Robert; Guidon,Manuel; Andermatt,Samuel; Holmberg,Nico;
 Schenter,Gregory K.; Hehn,Anna; Bussy,Augustin; Belleflamme,Fabian;
 Tabacchi,Gloria; Gloess,Andreas; Lass,Michael; Bethune,Iain;
 Mundy,Christopher J.; Plessl,Christian; Watkins,Matt;
 VandeVondele,Joost; Krack,Matthias; Hutter,Juerg. 
 The Journal of Chemical Physics, 152 (19), (2020). 
 CP2K: An electronic structure and molecular dynamics software package -
 Quickstep: Efficient and accurate electronic structure calculations.
 https://doi.org/10.1063/5.0007045

 Schuett, Ole; Messmer, Peter; Hutter, Juerg; VandeVondele, Joost. 
 Electronic Structure Calculations on Graphics Processing Units, John
 Wiley & Sons, Ltd, 173-190 (2016). 
 GPU-Accelerated Sparse Matrix-Matrix Multiplication for
 Linear Scaling Density Functional Theory.
 https://doi.org/10.1002/9781118670712.ch8

 Borstnik, U; VandeVondele, J; Weber, V; Hutter, J. 
 PARALLEL COMPUTING, 40 (5-6), 47-58 (2014). 
 Sparse matrix multiplication: The distributed block-compressed sparse
 row library.
 https://doi.org/10.1016/j.parco.2014.03.012

 Hutter, J; Iannuzzi, M; Schiffmann, F; VandeVondele, J. 
 WIREs Comput Mol Sci., 4 (1), 15-25 (2014). 
 CP2K: atomistic simulations of condensed matter systems.
 https://doi.org/10.1002/wcms.1159

 Marek, A; Blum, V; Johanni, R; Havu, V; Lang, B; Auckenthaler, T;
 Heinecke, A; Bungartz, H; Lederer, H. 
 Journal of Physics: Condensed Matter, 26 (21), (2014). 
 The ELPA library: scalable parallel eigenvalue solutions for
 electronic structure
 theory and computational science.
 https://doi.org/10.1088/0953-8984/26/21/213201

 Sabatini, R; Gorni, T; de Gironcoli, S. 
 Phys. Rev. B, 87 (4), 041108(R) (2013). 
 Nonlocal van der Waals density functional made simple and efficient.
 https://doi.org/10.1103/PhysRevB.87.041108

 Roman-Perez, G; Soler, JM. 
 Phys. Rev. Lett., 103 (9), 096102 (2009). 
 Efficient Implementation of a van der Waals Density Functional:
 Application to Double-Wall Carbon Nanotubes.
 https://doi.org/10.1103/PhysRevLett.103.096102

 VandeVondele, J; Hutter, J. 
 JOURNAL OF CHEMICAL PHYSICS, 127 (11), 114105 (2007). 
 Gaussian basis sets for accurate calculations on molecular systems in
 gas and condensed phases.
 https://doi.org/10.1063/1.2770708

 Krack, M. 
 THEORETICAL CHEMISTRY ACCOUNTS, 114 (1-3), 145-152 (2005). 
 Pseudopotentials for H to Kr optimized for gradient-corrected
 exchange-correlation functionals.
 https://doi.org/10.1007/s00214-005-0655-y

 VandeVondele, J; Krack, M; Mohamed, F; Parrinello, M; Chassaing, T;
 Hutter, J. COMPUTER PHYSICS COMMUNICATIONS, 167 (2), 103-128 (2005). 
 QUICKSTEP: Fast and accurate density functional calculations using a
 mixed Gaussian and plane waves approach.
 https://doi.org/10.1016/j.cpc.2004.12.014

 Frigo, M; Johnson, SG. 
 PROCEEDINGS OF THE IEEE, 93 (2), 216-231 (2005). 
 The design and implementation of FFTW3.
 https://doi.org/10.1109/JPROC.2004.840301

 Hartwigsen, C; Goedecker, S; Hutter, J. 
 PHYSICAL REVIEW B, 58 (7), 3641-3662 (1998). 
 Relativistic separable dual-space Gaussian pseudopotentials from H to Rn.
 https://doi.org/10.1103/PhysRevB.58.3641

 Lippert, G; Hutter, J; Parrinello, M. 
 MOLECULAR PHYSICS, 92 (3), 477-487 (1997). 
 A hybrid Gaussian and plane wave density functional scheme.
 https://doi.org/10.1080/002689797170220

 Perdew, JP; Burke, K; Ernzerhof, M. 
 PHYSICAL REVIEW LETTERS, 77 (18), 3865-3868 (1996). 
 Generalized gradient approximation made simple.
 https://doi.org/10.1103/PhysRevLett.77.3865

 Goedecker, S; Teter, M; Hutter, J. 
 PHYSICAL REVIEW B, 54 (3), 1703-1710 (1996). 
 Separable dual-space Gaussian pseudopotentials.
 https://doi.org/10.1103/PhysRevB.54.1703


 -------------------------------------------------------------------------------
 -                                                                             -
 -                                T I M I N G                                  -
 -                                                                             -
 -------------------------------------------------------------------------------
 SUBROUTINE                       CALLS  ASD         SELF TIME        TOTAL TIME
                                MAXIMUM       AVERAGE  MAXIMUM  AVERAGE  MAXIMUM
 CP2K                                 1  1.0    0.027    0.030 2238.893 2238.894
 qs_energies                          1  2.0    0.000    0.000 2238.024 2238.152
 scf_env_do_scf                       1  3.0    0.002    0.006 2120.910 2121.480
 scf_env_do_scf_inner_loop           87  4.0    0.004    0.008 2120.907 2121.480
 qs_scf_new_mos                      87  5.0    0.001    0.002 1370.260 1370.721
 eigensolver_dbcsr                   87  6.0    0.007    0.016 1327.423 1327.532
 cp_fm_diag_elpa                     87  7.0    0.001    0.001 1102.703 1104.645
 cp_fm_diag_elpa_base                87  8.0 1094.334 1097.438 1102.702 1104.643
 qs_ks_update_qs_env                 87  5.0    0.001    0.001  481.550  481.570
 rebuild_ks_matrix                   87  6.0    0.000    0.001  481.321  481.340
 qs_ks_build_kohn_sham_matrix        87  7.0    0.014    0.020  481.320  481.340
 qs_vxc_create                       87  8.0    0.003    0.004  341.075  341.384
 pw_transfer                       7194  9.8    0.441    0.627  275.531  282.740
 fft_wrap_pw1pw2                   6585 10.8    0.076    0.094  272.618  279.905
 calculate_dispersion_nonloc         87  9.0   29.838   36.232  248.741  249.019
 dbcsr_multiply_generic             348  7.8    0.047    0.050  233.478  235.531
 fft3d_ps                          6585 12.8   89.783  103.190  223.545  233.503
 multiply_cannon                    348  8.8    0.046    0.049  191.287  196.850
 multiply_cannon_loop               348  9.8    0.536    0.571  179.740  184.660
 fft_wrap_pw1pw2_150               4437 12.0    7.214    8.295  155.744  161.349
 sum_up_and_integrate                87  8.0    0.279    0.313  127.343  127.497
 integrate_v_rspace                  87  9.0    0.004    0.005  127.064  127.218
 qs_rho_update_rho                   88  5.0    0.001    0.001  119.249  120.129
 calculate_rho_elec                  88  6.0    0.230    0.237  119.248  120.128
 mp_alltoall_z22v                  6585 14.8  103.837  117.954  103.837  117.954
 fft_wrap_pw1pw2_300               1173 11.4    8.250    8.496  110.888  112.635
 scf_post_calculation_gpw             1  3.0    0.000    0.000  110.199  110.534
 mp_bcast_b                         175  7.5  101.683  106.405  101.683  106.405
 mp_waitall_1                    201246 11.3   85.998  105.232   85.998  105.232
 external_control                    87  5.0    0.526  100.936  100.942  100.945
 xc_vxc_pw_create                    87  9.0    1.188    1.387   92.331   92.416
 grid_integrate_task_list            87 10.0   85.661   90.332   85.661   90.332
 grid_collocate_task_list            88  7.0   70.800   74.997   70.800   74.997
 yz_to_x                           2761 13.8   10.627   11.556   64.551   74.415
 multiply_cannon_metrocomm3        8352 10.8    0.056    0.064   53.754   74.379
 multiply_cannon_multrec           8352 10.8   13.904   14.344   68.113   74.271
 x_to_yz                           3239 13.9   18.375   19.912   68.148   73.104
 cp_dbcsr_sm_fm_multiply             87  7.0    0.006    0.009   58.822   58.932
 rs_pw_transfer                    1173  9.1    0.022    0.029   52.911   57.589
 dbcsr_mm_accdrv_process         169088 11.4    4.653    5.445   48.952   55.018
 qs_scf_post_occ_cubes                1  4.0   35.887   37.386   54.787   54.823
 cp_dbcsr_sm_fm_multiply_core        87  8.0    0.000    0.001   53.251   54.652
 xc_rho_set_and_dset_create          87 10.0    0.459    0.467   52.974   53.551
 qs_scf_post_unocc_cubes              1  4.0   33.886   35.055   49.163   49.299
 density_rs2pw                       88  7.0    0.008    0.009   43.746   48.378
 -------------------------------------------------------------------------------

 The number of warnings for this run is : 2
 
 -------------------------------------------------------------------------------
  **** **** ******  **  PROGRAM ENDED AT                 2021-09-16 16:43:55.656
 ***** ** ***  *** **   PROGRAM RAN ON                                  nid02189
 **    ****   ******    PROGRAM RAN BY                                  dpassero
 ***** **    ** ** **   PROGRAM PROCESS ID                                 13443
  **** **  *******  **  PROGRAM STOPPED IN   /scratch/snx3000/dpassero/hybrid_Au
