    1450
 i =       91, E =    -34518.4691844318
  H         7.5455480963       13.8210018017       21.1511197643
  H         8.0523565745       16.2159970489       21.1818686866
  H         8.4962234439       18.1420247374       21.1954061933
  C         8.5842973199       14.1395722419       21.2337711717
  C         8.8814314059       15.5142855042       21.2379500315
  H         9.0861473685       20.5177711034       21.2065884027
  H         9.3679022679       12.1348802477       21.2826051702
  C         9.5477939723       18.4110081554       21.2685754387
  C         9.5956443900       13.2006043378       21.3021603105
  C         9.8807356239       19.7749581484       21.2753059320
  C        10.2015422673       15.9846293294       21.3448414095
  C        10.5298063105       17.4099064631       21.3549491691
  C        10.9517263827       13.6166567748       21.3820898333
  C        11.2023479093       20.1771327301       21.3432661506
  C        11.2581535601       15.0253716155       21.4062455453
  H        11.4625755295       21.2355888800       21.3340980985
  C        11.9002443409       17.8106770589       21.4300529894
  H        11.7569523002       11.6155186002       21.3487589899
  C        11.9970537178       12.6786333314       21.3983964829
  C        12.2398184160       19.2109049421       21.4175977608
  C        12.6196803138       15.4425882905       21.4695855967
  C        12.9414126725       16.8405646264       21.4810313631
  C        13.3438256683       13.0756803987       21.4457487531
  C        13.5917696981       19.5981439335       21.4374995092
  H        13.8383348495       20.6601182591       21.3959742709
  C        13.6614898174       14.4810663010       21.4891136293
  C        14.3004958578       17.2496365900       21.5083381738
  H        14.1562450344       11.0725194128       21.3621913704
  C        14.3961811935       12.1351142302       21.4239970953
  C        14.6288020125       18.6552720458       21.4771260443
  C        15.0222098106       14.8930376082       21.5165519700
  C        15.3420504327       16.2853155278       21.5268711605
  C        15.7359324427       12.5322932661       21.4596275578
  C        15.9851265995       19.0419081683       21.4453163111
  H        16.2316060575       20.1030156215       21.3850820822
  C        16.0671905103       13.9299831953       21.5080447463
  C        16.7049816154       16.6946910492       21.5182342894
  H        16.5546145427       10.5229076306       21.3555234991
  C        16.7979349006       11.5836429258       21.4206660014
  C        17.0200697058       18.1000406860       21.4710306228
  C        17.4328636454       14.3402166816       21.5187520224
  C        17.7519893525       15.7429746008       21.5222411399
  C        18.1077076230       11.9896005049       21.4434255029
  C        18.3753999007       18.4973559138       21.4333838797
  H        18.5746819661       19.5650800630       21.3745279242
  C        18.4669785384       13.3665761225       21.4970415538
  H        18.8806992377       11.2267294744       21.3968011220
  C        19.1177969484       16.1709240868       21.5167893628
  C        19.4263207209       17.5834462196       21.4807692870
  C        19.8494615063       13.7975596012       21.4980342204
  C        20.1571886738       15.2102536358       21.5170953665
  H        20.4029683402       20.1536120288       21.3799378305
  C        20.8110244359       18.0137798708       21.4809479183
  H        20.6994041916       11.8142364153       21.3977900421
  C        20.8992059069       12.8820599419       21.4508352639
  C        21.1745424836       19.3888901804       21.4286851087
  C        21.5235031253       15.6376601072       21.5187974473
  C        21.8438475422       17.0398361564       21.5121072887
  C        22.2530491876       13.2801203049       21.4605893289
  C        22.4866738003       19.7933738541       21.4183669843
  H        22.7299365724       20.8543058680       21.3563413453
  C        22.5672793058       14.6845265626       21.5077551750
  C        23.2107924704       17.4497516703       21.5095073840
  H        23.0421451477       11.2751053354       21.3431244582
  C        23.2900004893       12.3355424784       21.4097921622
  C        23.5464561322       18.8451387494       21.4631519513
  C        23.9312990541       15.0929053109       21.5165223846
  C        24.2535080699       16.4846792884       21.5220308893
  C        24.6441963984       12.7230618419       21.4448502849
  C        24.8908936376       19.2391856970       21.4239203770
  H        25.1320282294       20.3011540816       21.3578610921
  C        24.9686513671       14.1266218302       21.5027795768
  C        25.6133329073       16.8945884326       21.5074575953
  H        25.4489187678       10.7195929159       21.3421189873
  C        25.6907824812       11.7812528502       21.4103598806
  C        25.9380466238       18.2981270498       21.4539359246
  C        26.3281687839       14.5361153245       21.5177686720
  C        26.6509198152       15.9282947479       21.5175242521
  C        27.0350451920       12.1749515793       21.4577329018
  C        27.2923638211       18.6842492530       21.4071142114
  H        27.5406526836       19.7444294477       21.3388611362
  C        27.3705847201       13.5700787082       21.5082698132
  C        28.0148520122       16.3359034257       21.5064441444
  H        27.8488677393       10.1646559058       21.3575404129
  C        28.0934267602       11.2250155626       21.4230173463
  C        28.3300493768       17.7397254701       21.4515338968
  C        28.7372802502       13.9791109613       21.5194368934
  C        29.0588003635       15.3816773079       21.5198715438
  C        29.4049044136       11.6286455585       21.4463089188
  C        29.6856698342       18.1356680406       21.4326714599
  H        29.8871277041       19.2028177888       21.3701719692
  C        29.7679475074       13.0039738217       21.4962937117
  H        30.1763376137       10.8637271282       21.4036630888
  C        30.4248081247       15.8078326445       21.5197588510
  C        30.7346757537       17.2198132242       21.4902668127
  C        31.1525696299       13.4327677676       21.4916864677
  C        31.4625613752       14.8445311392       21.5203555230
  H        31.7146101881       19.7887835810       21.4062029281
  C        32.1202666050       17.6479572230       21.4956601006
  H        31.9987369956       11.4492605206       21.3727424828
  C        32.2005513689       12.5162798064       21.4345489891
  C        32.4852716471       19.0229229280       21.4472588302
  C        32.8286908515       15.2699350255       21.5204477588
  C        33.1509167330       16.6722419770       21.5191201744
  C        33.5556673950       12.9114818609       21.4534066087
  C        33.7974433807       19.4252077354       21.4244647023
  H        34.0427345127       20.4854953214       21.3604885729
  C        33.8718372001       14.3148907045       21.5081297386
  C        34.5183155181       17.0798457324       21.5079475657
  H        34.3418258103       10.9057821797       21.3404882151
  C        34.5915475696       11.9656025791       21.4089132066
  C        34.8555615320       18.4745945047       21.4578494659
  C        35.2359607749       14.7210392256       21.5184338756
  C        35.5600777760       16.1128136244       21.5177557314
  C        35.9458027309       12.3502650778       21.4561464633
  C        36.2006015335       18.8666164563       21.4101415694
  H        36.4435795302       19.9280652848       21.3423170511
  C        36.2721314165       13.7533761205       21.5089687433
  C        36.9202445710       16.5204955554       21.5019539952
  H        36.7481509906       10.3460101306       21.3599441161
  C        36.9909746693       11.4075729873       21.4263472708
  C        37.2466209307       17.9236366575       21.4431279127
  C        37.6322649873       14.1614449154       21.5232275759
  C        37.9564446796       15.5528013927       21.5160546340
  C        38.3355456219       11.7996665696       21.4653754855
  C        38.6018063685       18.3088677952       21.4064306870
  H        38.8511310941       19.3688821952       21.3382956452
  C        38.6731488041       13.1945932189       21.5114032813
  C        39.3212179934       15.9589060490       21.5067681795
  H        39.1478564415        9.7888714304       21.3579163928
  C        39.3932343629       10.8493230084       21.4199615567
  C        39.6378297119       17.3628154490       21.4573611641
  C        40.0404768158       13.6022106674       21.5140901564
  C        40.3633418882       15.0038602645       21.5196116586
  C        40.7057656544       11.2516245052       21.4304915907
  C        40.9929708946       17.7580864090       21.4469556598
  H        41.1951318580       18.8254165206       21.3920580345
  C        41.0711885647       12.6261924479       21.4838244222
  H        41.4761104026       10.4857801621       21.3807203131
  C        41.7305508356       15.4284745364       21.5178997016
  C        42.0412644662       16.8405423186       21.4971529957
  C        42.4562556597       13.0536900051       21.4848476460
  C        42.7677695799       14.4654243863       21.5199524594
  H        43.0174822723       19.4091368849       21.3999280320
  C        43.4250888300       17.2679934042       21.4971185152
  H        43.3026579562       11.0697110413       21.3814593159
  C        43.5045681035       12.1369682016       21.4390205975
  C        43.7884190728       18.6440537379       21.4452032955
  C        44.1345819708       14.8898092581       21.5252198935
  C        44.4571104409       16.2917350430       21.5201973018
  C        44.8605723257       12.5307960871       21.4774735650
  C        45.0993479671       19.0463854973       21.4233434031
  H        45.3455276836       20.1065845579       21.3598787601
  C        45.1791296225       13.9353073024       21.5226063123
  C        45.8240238528       16.6981841839       21.5091289764
  H        45.6429255797       10.5255985522       21.3926360245
  C        45.8925499676       11.5860038488       21.4523707076
  C        46.1591609766       18.0949992226       21.4604648377
  C        46.5430220725       14.3408318223       21.5298482110
  C        46.8664663377       15.7322235229       21.5177482811
  C        47.2496698092       11.9687806356       21.4818323323
  C        47.5000098349       18.4883117379       21.4243527872
  H        47.7430258010       19.5502016016       21.3624177061
  C        47.5818327512       13.3735304893       21.5112326243
  C        48.2283794278       16.1402321203       21.4888538426
  H        48.0339597963        9.9615585446       21.3984364221
  C        48.2838158704       11.0227882641       21.4392929627
  C        48.5498393968       17.5447032761       21.4446837973
  C        48.9419421441       13.7786337631       21.4818547489
  C        49.2675749843       15.1757001948       21.4694417532
  C        49.6366068177       11.4061040437       21.4159478247
  C        49.8977705033       17.9377260695       21.3968162242
  C        49.9801927168       12.8053971679       21.4292171168
  H        50.1410136624       19.0000770580       21.3466315738
  C        50.6302035814       15.5888948119       21.4055992221
  H        50.4078214553        9.3790402482       21.3286884094
  C        50.9405268043       16.9966986932       21.3808898083
  C        50.6711345258       10.4367511030       21.3375503011
  C        51.3516775680       13.2022543770       21.3523905998
  C        51.6841864905       14.6265745937       21.3450678047
  C        51.9937662985       10.8352461166       21.2677616285
  C        52.2977342881       17.4087382035       21.3006977119
  C        52.3305770040       12.1983242777       21.2620384485
  H        52.5285752398       18.4737569064       21.2798845324
  C        53.0057963139       15.0930240123       21.2408176094
  H        52.7861169862       10.0902046466       21.1965156607
  C        53.3066971433       16.4667669511       21.2346383206
  H        53.3827717780       12.4643340911       21.1870167753
  H        53.8329852758       14.3889196901       21.1865964553
  H        54.3463725833       16.7825064119       21.1528713289
 Au         0.0023839800       -0.0055094050       18.1403500090
 Au         1.4731526492        2.5469981109       18.1404247125
 Au        -0.0002665437        5.1015277561       18.1414392213
 Au         1.4779430448        7.6516380667       18.1422255669
 Au         0.0011496471       10.2035529067       18.1414016921
 Au         1.4743490287       12.7578245152       18.1393741024
 Au         0.0013508839       15.3130931934       18.1403586812
 Au         1.4709748173       17.8664706559       18.1415973529
 Au         0.0031868220       20.4213094226       18.1415803007
 Au         1.4707585963       22.9724109886       18.1404363805
 Au         0.0043995244       25.5240817904       18.1401146943
 Au         1.4708732546       28.0748333839       18.1454961844
 Au         2.9524306358       -0.0090249339       18.1352230582
 Au         4.4243625488        2.5480976649       18.1402098253
 Au         2.9485722505        5.0986832692       18.1443503947
 Au         4.4289985324        7.6486218759       18.1451148443
 Au         2.9478413828       10.2047425904       18.1435288870
 Au         4.4274389138       12.7576968263       18.1555117067
 Au         2.9454742180       15.3122475614       18.1519507174
 Au         4.4202182617       17.8676006750       18.1568928699
 Au         2.9526230669       20.4186211489       18.1442537731
 Au         4.4224739251       22.9709568447       18.1477036363
 Au         2.9548005385       25.5217075083       18.1462544744
 Au         4.4216513664       28.0747885177       18.1408339990
 Au         5.9030972876       -0.0086152502       18.1416258142
 Au         7.3746646460        2.5490684066       18.1362220440
 Au         5.9004725946        5.0973331948       18.1430765961
 Au         7.3773110606        7.6534143400       18.1466089702
 Au         5.8949008838       10.1987376051       18.1562183590
 Au         7.3625152117       12.7438070786       18.1245639513
 Au         5.8794605540       15.3177402487       18.1614258897
 Au         7.3590659844       17.8732806633       18.1580000256
 Au         5.8966384613       20.4238827695       18.1586570991
 Au         7.3749908100       22.9734342110       18.1602527021
 Au         5.9021716862       25.5209356122       18.1432708070
 Au         7.3752762409       28.0756453698       18.1385115094
 Au         8.8508172658       -0.0059957360       18.1356586380
 Au        10.3250216530        2.5528831441       18.1322882376
 Au         8.8536752452        5.1019141176       18.1438290232
 Au        10.3246813532        7.6562042387       18.1527785765
 Au         8.8544743106       10.1986373748       18.1631237531
 Au        10.3096133224       12.7486798842       18.0993530080
 Au         8.8135382297       15.3266144268       18.1224682093
 Au        10.3066453507       17.8666545030       18.0796573118
 Au         8.8352422190       20.4313595543       18.1173475963
 Au        10.3263298185       22.9775922284       18.1570247518
 Au         8.8526059289       25.5229082291       18.1424329360
 Au        10.3265090839       28.0783642160       18.1403268861
 Au        11.8004186071       -0.0049685205       18.1275358365
 Au        13.2743250870        2.5574304435       18.1358131500
 Au        11.7983210780        5.1062718123       18.1460593830
 Au        13.2737253135        7.6578936106       18.1630030460
 Au        11.7981202629       10.1999417381       18.1716617238
 Au        13.2679538855       12.7471544994       18.1071190767
 Au        11.7898943634       15.3090498888       18.0832890319
 Au        13.2546745281       17.8741020034       18.0891346049
 Au        11.7943726592       20.4413770984       18.1209285394
 Au        13.2777614434       22.9711534450       18.1769679122
 Au        11.7991599436       25.5216196122       18.1468797811
 Au        13.2742115959       28.0719459610       18.1404040131
 Au        14.7436794659       -0.0056800319       18.1310533211
 Au        16.2178243924        2.5507907988       18.1337204377
 Au        14.7457471039        5.1096636532       18.1435952169
 Au        16.2203253036        7.6611873058       18.1690122284
 Au        14.7388131258       10.1972361366       18.1587316108
 Au        16.2153141248       12.7606072928       18.0905515456
 Au        14.7308590203       15.3164166508       18.1083563133
 Au        16.2025135440       17.8670181116       18.1012616859
 Au        14.7469889952       20.4269573993       18.1542411507
 Au        16.2203804983       22.9606194074       18.1823620314
 Au        14.7491362773       25.5158606100       18.1498495511
 Au        16.2201596458       28.0697746396       18.1353346869
 Au        17.6991424606       -0.0088313162       18.1322897073
 Au        19.1663829298        2.5554147537       18.1367245043
 Au        17.6987414075        5.1072288852       18.1500945431
 Au        19.1629247104        7.6613865557       18.1766415389
 Au        17.6955213237       10.2023063716       18.1665957034
 Au        19.1640240928       12.7585505897       18.1171078598
 Au        17.6857788679       15.3183105265       18.1191789088
 Au        19.1576972673       17.8744559438       18.1268278394
 Au        17.6953111661       20.4237272194       18.1721252951
 Au        19.1731537335       22.9605390961       18.1824937209
 Au        17.6973762021       25.5107537006       18.1539886576
 Au        19.1705437408       28.0693807712       18.1460205700
 Au        20.6395837869       -0.0083727968       18.1294777051
 Au        22.1152048987        2.5549120684       18.1395239664
 Au        20.6445696161        5.1088636269       18.1552223546
 Au        22.1094677210        7.6609497926       18.1722189764
 Au        20.6408653032       10.2046670657       18.1960234083
 Au        22.1096525730       12.7484618708       18.1240318843
 Au        20.6342405470       15.3136356868       18.1157284441
 Au        22.1087580485       17.8613377613       18.0934725845
 Au        20.6368111461       20.4220819523       18.1593876549
 Au        22.1220013601       22.9661769607       18.1727661704
 Au        20.6358610091       25.5133345504       18.1535445878
 Au        22.1201782648       28.0691006716       18.1422814254
 Au        23.5842709287       -0.0052773598       18.1232283249
 Au        25.0610416719        2.5523880318       18.1341509073
 Au        23.5865375935        5.1097198256       18.1481724485
 Au        25.0573661992        7.6602505149       18.1706558581
 Au        23.5823160702       10.1975063133       18.1704999792
 Au        25.0635678270       12.7524845591       18.1023962874
 Au        23.5804724248       15.3064793961       18.1109196296
 Au        25.0505120155       17.8657589468       18.0922720616
 Au        23.5867332180       20.4240736429       18.1373277390
 Au        25.0624622762       22.9625182036       18.1771379859
 Au        23.5845833629       25.5147454756       18.1488544551
 Au        25.0627120992       28.0705288055       18.1366106825
 Au        26.5366714457       -0.0067152350       18.1282847751
 Au        28.0048727953        2.5543058521       18.1339067921
 Au        26.5352843386        5.1101448774       18.1453464017
 Au        28.0025957983        7.6601504881       18.1735983062
 Au        26.5325091881       10.1981238787       18.1495021430
 Au        28.0055176241       12.7638863201       18.0880844466
 Au        26.5306013617       15.3167637030       18.1156614185
 Au        27.9993302268       17.8713288226       18.1162757137
 Au        26.5352694665       20.4227809422       18.1642044876
 Au        28.0108722208       22.9563548027       18.1718260185
 Au        26.5331680466       25.5128014440       18.1475519980
 Au        28.0064120085       28.0673347729       18.1428472444
 Au        29.4782217796       -0.0096111108       18.1303125399
 Au        30.9562362119        2.5506956963       18.1421752381
 Au        29.4858332184        5.1082252643       18.1495595540
 Au        30.9514887580        7.6600416575       18.1723954665
 Au        29.4880954535       10.2030560129       18.1658931938
 Au        30.9639454713       12.7566419089       18.1211057376
 Au        29.4825944474       15.3082657032       18.1174489734
 Au        30.9497950361       17.8657913641       18.1208339589
 Au        29.4840450863       20.4162278463       18.1822789617
 Au        30.9618195433       22.9575175039       18.1756010119
 Au        29.4773252844       25.5107914515       18.1508246239
 Au        30.9610615214       28.0676876559       18.1436281795
 Au        32.4268546994       -0.0060846092       18.1295594259
 Au        33.9055841756        2.5525663538       18.1421134449
 Au        32.4298261220        5.1092078548       18.1498671112
 Au        33.9024216494        7.6620646348       18.1700892609
 Au        32.4286872188       10.2021499755       18.1847075853
 Au        33.9140929388       12.7502650568       18.1137387462
 Au        32.4342490541       15.3115921042       18.1188098732
 Au        33.9014419646       17.8623052687       18.0856456109
 Au        32.4272560034       20.4143757029       18.1645291223
 Au        33.9062522357       22.9602218975       18.1707850353
 Au        32.4232732208       25.5095551772       18.1458214599
 Au        33.9049183742       28.0674109893       18.1392429921
 Au        35.3752067420       -0.0046333759       18.1271774648
 Au        36.8467842189        2.5538284476       18.1376190772
 Au        35.3774474687        5.1107514606       18.1461331455
 Au        36.8510046025        7.6599166317       18.1747378657
 Au        35.3796742773       10.1995211753       18.1644222021
 Au        36.8613582803       12.7627052082       18.0941356071
 Au        35.3833240780       15.3106466819       18.1158156783
 Au        36.8458117522       17.8739967498       18.1014314333
 Au        35.3833951319       20.4231005891       18.1495090330
 Au        36.8527998648       22.9630177457       18.1696646377
 Au        35.3797162377       25.5126172116       18.1423479139
 Au        36.8478178442       28.0731252413       18.1372902838
 Au        38.3225580859       -0.0048706574       18.1262296922
 Au        39.7963225768        2.5536798625       18.1409204142
 Au        38.3231621000        5.1079426404       18.1502750307
 Au        39.7934456194        7.6552294021       18.1734398654
 Au        38.3264547843       10.2006608353       18.1388204906
 Au        39.8050640969       12.7662015701       18.0949003708
 Au        38.3311035754       15.3205828553       18.1128449350
 Au        39.8029417252       17.8785358561       18.1246955466
 Au        38.3286609344       20.4244371659       18.1679338002
 Au        39.8014345776       22.9622285944       18.1759459111
 Au        38.3223094068       25.5153250803       18.1475187595
 Au        39.7995594045       28.0701342838       18.1423260362
 Au        41.2655651922       -0.0043339639       18.1305430243
 Au        42.7428205516        2.5515877715       18.1455925389
 Au        41.2707789751        5.1091240930       18.1525187058
 Au        42.7419300589        7.6593608629       18.1780509045
 Au        41.2759834237       10.2000672076       18.1637480063
 Au        42.7559813222       12.7505646888       18.1277271739
 Au        41.2803199411       15.3115614080       18.1193335325
 Au        42.7441518784       17.8703622336       18.1154668569
 Au        41.2730626306       20.4185066883       18.1948905450
 Au        42.7429284846       22.9623829129       18.1745311498
 Au        41.2647496400       25.5130165201       18.1496355433
 Au        42.7430837557       28.0668261051       18.1439858030
 Au        44.2140751962       -0.0045095496       18.1246499154
 Au        45.6896939020        2.5540136138       18.1371149805
 Au        44.2125628963        5.1120365226       18.1511061757
 Au        45.6948149634        7.6605060772       18.1803872808
 Au        44.2179813243       10.2006765071       18.1761768467
 Au        45.7116969685       12.7608630261       18.1008612506
 Au        44.2296734262       15.3102569727       18.1237607782
 Au        45.6931081441       17.8683696658       18.0901836974
 Au        44.2217698011       20.4193877742       18.1679307787
 Au        45.6875891428       22.9631988256       18.1677591085
 Au        44.2203694093       25.5130515616       18.1471324497
 Au        45.6873780282       28.0745503070       18.1387772650
 Au        47.1670722136       -0.0046656862       18.1277969392
 Au        48.6383626657        2.5564997687       18.1390983566
 Au        47.1589955062        5.1092423429       18.1471860883
 Au        48.6368284710        7.6536849465       18.1759616946
 Au        47.1598057493       10.2007173007       18.1550580128
 Au        48.6582060730       12.7576211430       18.0901431189
 Au        47.1753175286       15.3149159270       18.1101446193
 Au        48.6441726854       17.8833279089       18.1053445821
 Au        47.1715823714       20.4277678101       18.1590105530
 Au        48.6381258599       22.9681452940       18.1664744210
 Au        47.1656541295       25.5158338147       18.1439197959
 Au        48.6376166540       28.0728138570       18.1368981558
 Au        50.1075769232       -0.0023340265       18.1268453081
 Au        51.5854423492        2.5489313260       18.1410039166
 Au        50.1073751719        5.1046355887       18.1487673605
 Au        51.5844685730        7.6441590496       18.1550780251
 Au        50.1100163681       10.1844839376       18.1231042890
 Au        51.6022126480       12.7560064672       18.0807298883
 Au        50.1170449271       15.3216703901       18.0812016665
 Au        51.5994444414       17.8811057354       18.0970399051
 Au        50.1152441437       20.4266197536       18.1721576962
 Au        51.5824596375       22.9703322107       18.1538720802
 Au        50.1098967888       25.5201649538       18.1443202063
 Au        51.5838525546       28.0736950399       18.1375831396
 Au        53.0625976758       -0.0051490708       18.1293248344
 Au        54.5344758424        2.5478956047       18.1425683220
 Au        53.0583563523        5.1008969142       18.1453000563
 Au        54.5365391658        7.6468189637       18.1607023326
 Au        53.0718039073       10.1935401032       18.1213643322
 Au        54.5524990041       12.7502319382       18.1560663295
 Au        53.0967879033       15.3008289595       18.1216063439
 Au        54.5526774903       17.8806536762       18.1245099693
 Au        53.0657402406       20.4229209741       18.1654003520
 Au        54.5289088289       22.9719053846       18.1465029890
 Au        53.0627376519       25.5213582216       18.1432702722
 Au        54.5301970930       28.0756278995       18.1408618466
 Au        56.0123562488       -0.0078392425       18.1357222295
 Au        57.4880028453        2.5494837014       18.1410734532
 Au        56.0082692139        5.0994446133       18.1426843811
 Au        57.4894404561        7.6508995162       18.1467182468
 Au        56.0065230834       10.1993322460       18.1593826787
 Au        57.4948660401       12.7544006447       18.1561692124
 Au        56.0249196593       15.3080421309       18.1618690702
 Au        57.4918488939       17.8648543673       18.1522645710
 Au        56.0169994575       20.4241698865       18.1556716680
 Au        57.4838279516       22.9741403685       18.1453527247
 Au        56.0144442428       25.5226259484       18.1437153644
 Au        57.4846358306       28.0764304050       18.1374795143
 Au        58.9611423055       -0.0052310177       18.1343586543
 Au        60.4369632120        2.5508524225       18.1420674752
 Au        58.9568712029        5.0998677617       18.1440235557
 Au        60.4372410524        7.6527323775       18.1388307899
 Au        58.9542764209       10.2030247157       18.1411880497
 Au        60.4379173800       12.7570144207       18.1407543106
 Au        58.9598151895       15.3112384249       18.1495488451
 Au        60.4365054362       17.8662198201       18.1387952463
 Au        58.9608495087       20.4209070217       18.1412102060
 Au        60.4328247034       22.9719880639       18.1417454042
 Au        58.9617116271       25.5232417562       18.1417382935
 Au        60.4356173109       28.0779685835       18.1391259591
 Au         0.0041980016        1.7036734636       15.6759625669
 Au         1.4728391034        4.2594566845       15.6772362765
 Au         0.0056618504        6.8094304402       15.6763642745
 Au         1.4738265239        9.3644469411       15.6756854710
 Au         0.0030578882       11.9170049296       15.6763936672
 Au         1.4737854294       14.4723586309       15.6767541752
 Au         0.0041259306       17.0249354823       15.6741559343
 Au         1.4738726502       19.5790019073       15.6766670206
 Au         0.0034891905       22.1286052334       15.6748651963
 Au         1.4744663430       24.6825235718       15.6763128137
 Au         0.0043989634       27.2332199145       15.6739938814
 Au         1.4726338582       29.7863290203       15.6775604165
 Au         2.9497764378        1.7054201436       15.6761225326
 Au         4.4254221435        4.2552323107       15.6762327312
 Au         2.9525838266        6.8097972145       15.6788140316
 Au         4.4240973942        9.3586191159       15.6781087736
 Au         2.9478491617       11.9172826072       15.6795382083
 Au         4.4204882528       14.4683525009       15.6799476000